# vtk DataFile Version 2.0
Exported by getfem++
ASCII
DATASET UNSTRUCTURED_GRID
POINTS 3042 float
 2.32519 23.6527 0 1.57729 22.843 0 2.58204 22.5719 0
 3.19313 24.6427 0 2.32519 23.6527 0 3.41882 23.3265 0
 2.32519 23.6527 0 3.19313 24.6427 0 1.95911 24.7555 0
 1.25984 23.839 0 2.32519 23.6527 0 1.95911 24.7555 0
 3.41882 23.3265 0 2.32519 23.6527 0 2.58204 22.5719 0
 2.32519 23.6527 0 1.25984 23.839 0 1.57729 22.843 0
 1.57729 22.843 0 1.25984 23.839 0 0.526293 22.9827 0
 3.41882 23.3265 0 2.58204 22.5719 0 3.55474 22.1669 0
 4.14111 25.0429 0 3.19313 24.6427 0 4.28341 24.1159 0
 3.19313 24.6427 0 3.41882 23.3265 0 4.28341 24.1159 0
 3.19313 24.6427 0 2.58145 25.7552 0 1.95911 24.7555 0
 2.58145 25.7552 0 3.19313 24.6427 0 3.62776 25.7849 0
 3.19313 24.6427 0 4.14111 25.0429 0 3.62776 25.7849 0
 3.41882 23.3265 0 4.5938 22.8817 0 4.28341 24.1159 0
 4.5938 22.8817 0 3.41882 23.3265 0 3.55474 22.1669 0
 2.58145 25.7552 0 1.50453 25.8047 0 1.95911 24.7555 0
 1.50453 25.8047 0 0.898132 24.8552 0 1.95911 24.7555 0
 0.898132 24.8552 0 1.25984 23.839 0 1.95911 24.7555 0
 1.25984 23.839 0 0.898132 24.8552 0 0.284716 23.9696 0
 0.526293 22.9827 0 1.25984 23.839 0 0.284716 23.9696 0
 0.526293 22.9827 0 0.284716 23.9696 0 -0.526293 22.9827 0
 4.5938 22.8817 0 3.55474 22.1669 0 4.45646 21.6438 0
 4.99229 24.8978 0 4.14111 25.0429 0 4.28341 24.1159 0
 4.14111 25.0429 0 4.99229 24.8978 0 4.60869 25.7883 0
 3.62776 25.7849 0 4.14111 25.0429 0 4.60869 25.7883 0
 4.5938 22.8817 0 5.34644 23.9322 0 4.28341 24.1159 0
 5.34644 23.9322 0 4.99229 24.8978 0 4.28341 24.1159 0
 1.50453 25.8047 0 2.58145 25.7552 0 2.09468 26.776 0
 2.09468 26.776 0 2.58145 25.7552 0 3.14157 26.7235 0
 3.14157 26.7235 0 2.58145 25.7552 0 3.62776 25.7849 0
 4.15794 26.6786 0 3.14157 26.7235 0 3.62776 25.7849 0
 4.15794 26.6786 0 3.62776 25.7849 0 4.60869 25.7883 0
 5.34644 23.9322 0 4.5938 22.8817 0 5.80631 22.9589 0
 4.5938 22.8817 0 4.45646 21.6438 0 5.30773 22.0873 0
 5.80631 22.9589 0 4.5938 22.8817 0 5.30773 22.0873 0
 1.50453 25.8047 0 2.09468 26.776 0 1.03483 26.8314 0
 0.464135 25.8549 0 1.50453 25.8047 0 1.03483 26.8314 0
 0.898132 24.8552 0 1.50453 25.8047 0 0.464135 25.8549 0
 0.898132 24.8552 0 0.464135 25.8549 0 -0.0775062 24.934 0
 0.898132 24.8552 0 -0.0775062 24.934 0 0.284716 23.9696 0
 0.284716 23.9696 0 -0.552735 24.1615 0 -0.526293 22.9827 0
 -0.0775062 24.934 0 -0.552735 24.1615 0 0.284716 23.9696 0
 -0.552735 24.1615 0 -1.373 23.9035 0 -0.526293 22.9827 0
 -0.526293 22.9827 0 -1.373 23.9035 0 -1.57729 22.843 0
 4.45646 21.6438 0 5.40081 20.9018 0 5.30773 22.0873 0
 4.99229 24.8978 0 5.34644 23.9322 0 5.96818 24.8087 0
 4.60869 25.7883 0 4.99229 24.8978 0 5.56761 25.7112 0
 4.99229 24.8978 0 5.96818 24.8087 0 5.56761 25.7112 0
 5.16723 26.6306 0 4.60869 25.7883 0 5.56761 25.7112 0
 4.15794 26.6786 0 4.60869 25.7883 0 5.16723 26.6306 0
 5.34644 23.9322 0 5.80631 22.9589 0 6.40611 23.8836 0
 5.96818 24.8087 0 5.34644 23.9322 0 6.40611 23.8836 0
 2.09468 26.776 0 2.68712 27.7196 0 1.6368 27.8125 0
 2.09468 26.776 0 1.6368 27.8125 0 1.03483 26.8314 0
 2.09468 26.776 0 3.14157 26.7235 0 2.68712 27.7196 0
 3.14157 26.7235 0 4.15794 26.6786 0 3.70876 27.6224 0
 2.68712 27.7196 0 3.14157 26.7235 0 3.70876 27.6224 0
 4.15794 26.6786 0 5.16723 26.6306 0 4.70715 27.5405 0
 3.70876 27.6224 0 4.15794 26.6786 0 4.70715 27.5405 0
 5.80631 22.9589 0 6.88246 22.9525 0 6.40611 23.8836 0
 5.80631 22.9589 0 6.281 22.0074 0 6.88246 22.9525 0
 6.281 22.0074 0 5.80631 22.9589 0 5.30773 22.0873 0
 5.40081 20.9018 0 6.281 22.0074 0 5.30773 22.0873 0
 -0.0265845 26.8586 0 0.464135 25.8549 0 1.03483 26.8314 0
 0.545542 27.8877 0 -0.0265845 26.8586 0 1.03483 26.8314 0
 1.6368 27.8125 0 0.545542 27.8877 0 1.03483 26.8314 0
 0.464135 25.8549 0 -0.0265845 26.8586 0 -0.552448 25.8666 0
 -0.0775062 24.934 0 0.464135 25.8549 0 -0.552448 25.8666 0
 -1.03072 24.9136 0 -0.552735 24.1615 0 -0.0775062 24.934 0
 -1.03072 24.9136 0 -0.0775062 24.934 0 -0.552448 25.8666 0
 -1.373 23.9035 0 -0.552735 24.1615 0 -1.03072 24.9136 0
 -2.36626 23.6702 0 -1.373 23.9035 0 -2.03167 24.7872 0
 -1.373 23.9035 0 -2.36626 23.6702 0 -1.57729 22.843 0
 -1.373 23.9035 0 -1.03072 24.9136 0 -2.03167 24.7872 0
 -2.36626 23.6702 0 -2.58204 22.5719 0 -1.57729 22.843 0
 6.75459 21.0678 0 6.281 22.0074 0 5.40081 20.9018 0
 6.75459 21.0678 0 5.40081 20.9018 0 6.14682 20.1202 0
 6.97765 24.7827 0 5.96818 24.8087 0 6.40611 23.8836 0
 5.96818 24.8087 0 6.52118 25.637 0 5.56761 25.7112 0
 6.52118 25.637 0 5.96818 24.8087 0 6.97765 24.7827 0
 6.16032 26.5203 0 5.16723 26.6306 0 5.56761 25.7112 0
 6.52118 25.637 0 6.16032 26.5203 0 5.56761 25.7112 0
 5.84826 27.6042 0 5.16723 26.6306 0 6.16032 26.5203 0
 5.16723 26.6306 0 5.84826 27.6042 0 4.70715 27.5405 0
 7.46476 23.88 0 6.97765 24.7827 0 6.40611 23.8836 0
 6.88246 22.9525 0 7.46476 23.88 0 6.40611 23.8836 0
 2.68712 27.7196 0 3.70876 27.6224 0 3.28878 28.6227 0
 2.26656 28.771 0 2.68712 27.7196 0 3.28878 28.6227 0
 2.68712 27.7196 0 2.26656 28.771 0 1.6368 27.8125 0
 1.21044 28.8968 0 0.545542 27.8877 0 1.6368 27.8125 0
 2.26656 28.771 0 1.21044 28.8968 0 1.6368 27.8125 0
 3.70876 27.6224 0 4.27718 28.455 0 3.28878 28.6227 0
 4.27718 28.455 0 3.70876 27.6224 0 4.70715 27.5405 0
 5.14811 28.3057 0 4.27718 28.455 0 4.70715 27.5405 0
 5.84826 27.6042 0 5.14811 28.3057 0 4.70715 27.5405 0
 7.38032 22.0308 0 7.96911 22.972 0 6.88246 22.9525 0
 7.96911 22.972 0 7.46476 23.88 0 6.88246 22.9525 0
 6.281 22.0074 0 7.38032 22.0308 0 6.88246 22.9525 0
 6.75459 21.0678 0 7.38032 22.0308 0 6.281 22.0074 0
 -0.0265845 26.8586 0 -1.08286 26.8371 0 -0.552448 25.8666 0
 -0.575992 27.8886 0 -1.08286 26.8371 0 -0.0265845 26.8586 0
 0.545542 27.8877 0 -0.575992 27.8886 0 -0.0265845 26.8586 0
 0.545542 27.8877 0 -0.00489492 29.0545 0 -0.575992 27.8886 0
 0.545542 27.8877 0 1.21044 28.8968 0 -0.00489492 29.0545 0
 -1.57142 25.8251 0 -1.03072 24.9136 0 -0.552448 25.8666 0
 -1.08286 26.8371 0 -1.57142 25.8251 0 -0.552448 25.8666 0
 -1.03072 24.9136 0 -1.57142 25.8251 0 -2.03167 24.7872 0
 -3.21983 24.6551 0 -2.36626 23.6702 0 -2.03167 24.7872 0
 -2.36626 23.6702 0 -3.21983 24.6551 0 -3.43273 23.3309 0
 -2.36626 23.6702 0 -3.43273 23.3309 0 -2.58204 22.5719 0
 -1.57142 25.8251 0 -2.61949 25.7686 0 -2.03167 24.7872 0
 -2.61949 25.7686 0 -3.21983 24.6551 0 -2.03167 24.7872 0
 -2.58204 22.5719 0 -3.43273 23.3309 0 -3.55474 22.1669 0
 7.38032 22.0308 0 6.75459 21.0678 0 7.90996 21.1223 0
 7.32453 20.1718 0 6.75459 21.0678 0 6.14682 20.1202 0
 6.75459 21.0678 0 7.32453 20.1718 0 7.90996 21.1223 0
 6.77308 19.2574 0 7.32453 20.1718 0 6.14682 20.1202 0
 7.48921 25.6748 0 6.52118 25.637 0 6.97765 24.7827 0
 7.46476 23.88 0 8.02684 24.8101 0 6.97765 24.7827 0
 8.02684 24.8101 0 7.48921 25.6748 0 6.97765 24.7827 0
 6.16032 26.5203 0 6.52118 25.637 0 6.97762 26.3402 0
 6.52118 25.637 0 7.48921 25.6748 0 6.97762 26.3402 0
 6.92339 27.204 0 6.16032 26.5203 0 6.97762 26.3402 0
 6.92339 27.204 0 5.84826 27.6042 0 6.16032 26.5203 0
 5.84826 27.6042 0 5.98196 28.7556 0 5.14811 28.3057 0
 5.84826 27.6042 0 6.92339 27.204 0 6.89648 28.3206 0
 5.98196 28.7556 0 5.84826 27.6042 0 6.89648 28.3206 0
 7.46476 23.88 0 7.96911 22.972 0 8.53784 23.9005 0
 8.02684 24.8101 0 7.46476 23.88 0 8.53784 23.9005 0
 2.89141 29.7187 0 2.26656 28.771 0 3.28878 28.6227 0
 3.90279 29.4834 0 2.89141 29.7187 0 3.28878 28.6227 0
 4.27718 28.455 0 3.90279 29.4834 0 3.28878 28.6227 0
 1.8908 29.8804 0 2.26656 28.771 0 2.89141 29.7187 0
 1.8908 29.8804 0 1.21044 28.8968 0 2.26656 28.771 0
 -0.00489492 29.0545 0 1.21044 28.8968 0 0.917934 29.9719 0
 1.21044 28.8968 0 1.8908 29.8804 0 0.917934 29.9719 0
 4.27718 28.455 0 5.14811 28.3057 0 4.92692 29.1678 0
 3.90279 29.4834 0 4.27718 28.455 0 4.92692 29.1678 0
 5.14811 28.3057 0 5.98196 28.7556 0 4.92692 29.1678 0
 7.96911 22.972 0 7.38032 22.0308 0 8.49356 22.0722 0
 8.49356 22.0722 0 7.38032 22.0308 0 7.90996 21.1223 0
 9.06516 23.0124 0 7.96911 22.972 0 8.49356 22.0722 0
 7.96911 22.972 0 9.06516 23.0124 0 8.53784 23.9005 0
 -1.08286 26.8371 0 -1.66321 27.8155 0 -2.13024 26.7831 0
 -1.08286 26.8371 0 -0.575992 27.8886 0 -1.66321 27.8155 0
 -1.57142 25.8251 0 -1.08286 26.8371 0 -2.13024 26.7831 0
 -0.575992 27.8886 0 -1.22388 28.8979 0 -1.66321 27.8155 0
 -0.575992 27.8886 0 -0.00489492 29.0545 0 -1.22388 28.8979 0
 -1.22388 28.8979 0 -0.00489492 29.0545 0 -0.917934 29.9719 0
 -0.00489492 29.0545 0 4.46275e-12 30 0 -0.917934 29.9719 0
 4.46275e-12 30 0 -0.00489492 29.0545 0 0.917934 29.9719 0
 -2.61949 25.7686 0 -1.57142 25.8251 0 -2.13024 26.7831 0
 -3.64857 25.7922 0 -3.21983 24.6551 0 -2.61949 25.7686 0
 -3.21983 24.6551 0 -3.64857 25.7922 0 -4.1564 25.0499 0
 -4.29491 24.1233 0 -3.21983 24.6551 0 -4.1564 25.0499 0
 -3.43273 23.3309 0 -3.21983 24.6551 0 -4.29491 24.1233 0
 -3.43273 23.3309 0 -4.59781 22.8844 0 -3.55474 22.1669 0
 -4.59781 22.8844 0 -3.43273 23.3309 0 -4.29491 24.1233 0
 -3.64857 25.7922 0 -2.61949 25.7686 0 -3.16455 26.7294 0
 -2.61949 25.7686 0 -2.13024 26.7831 0 -3.16455 26.7294 0
 -3.55474 22.1669 0 -4.59781 22.8844 0 -4.45646 21.6438 0
 9.04007 21.1788 0 8.49356 22.0722 0 7.90996 21.1223 0
 9.04007 21.1788 0 7.90996 21.1223 0 8.47017 20.2188 0
 7.90996 21.1223 0 7.32453 20.1718 0 8.47017 20.2188 0
 7.32453 20.1718 0 7.89961 19.245 0 8.47017 20.2188 0
 7.32453 20.1718 0 6.77308 19.2574 0 7.89961 19.245 0
 7.89961 19.245 0 6.77308 19.2574 0 7.27687 18.3237 0
 8.02684 24.8101 0 8.63076 25.8696 0 7.48921 25.6748 0
 7.48921 25.6748 0 7.79264 26.6589 0 6.97762 26.3402 0
 8.63076 25.8696 0 7.79264 26.6589 0 7.48921 25.6748 0
 8.63076 25.8696 0 8.02684 24.8101 0 9.08233 24.8046 0
 8.02684 24.8101 0 8.53784 23.9005 0 9.08233 24.8046 0
 7.79264 26.6589 0 6.92339 27.204 0 6.97762 26.3402 0
 6.92339 27.204 0 7.88645 27.7595 0 6.89648 28.3206 0
 7.79264 26.6589 0 7.88645 27.7595 0 6.92339 27.204 0
 9.06516 23.0124 0 9.61396 23.9394 0 8.53784 23.9005 0
 8.53784 23.9005 0 9.61396 23.9394 0 9.08233 24.8046 0
[...]
POINT_DATA 3042


SCALARS Von_Mises_Stresses float 1
LOOKUP_TABLE default
 8044.24 5909.17 9528.85 10233.8 8101.65 10355.2 8038.53 10170.1 8418.6 5933.78 7727.86 8696.57 10752.5 7713.73 9638.26 8006.97 5712.92 5768.26 5620.02 6067.97 2127.71 10686.8 9813.07 13730.5 11370.6 10117.8 11600.8 9884.63 10604.6 11877.3 9958.24 10096.9 8554.49 9953.49 10103.2 10888.1 10203.6 11326.9 10877.7 10776.8 13562.1 11843 14088.4 10394.4 13821.6 10054.5 9290.66 8589.14 9457.2 7690.92 8415.21 7621.16 6006.48 8552.03 5722.19 7846.41 5032.25 2119.29 5894.31 5014.51 1893.07 5298.42 1692.12 13941 14080.9 18182 12364.7 11286.9 11721.5 11333.1 12273.6 11661.1 10845.2 11289.9 11679.1 13735.4 13523.7 11617.9 13386.9 12327.6 11780.8 9341.63 9973.77 10257.8 10156.2 10063.6 10672.5 10700.3 10022.7 10834.9 11219.2 10627.1 10895.1 11223 10892.4 11635.3 13384.4 14075.4 15588.1 13542.9 18259.7 17657.5 15680.7 14021.5 17222.7 9409.14 10199.2 9860.59 9012.34 9297.78 9967.78 7795.82 9345.35 8991.8 7622.19 9134.34 7536.31 7662 7533.4 5208.44 4991.81 5813.8 1912.67 7682.71 5774.48 4981.46 5773.86 6269.36 2383.35 2214.14 6469.39 5656.41 18503.5 23845.6 17530.4 12243 13422.6 13363 11633.6 12296 12452 12321.1 13308.1 12427.6 11791.9 11678.2 12412.2 11188.8 11669.5 11800.2 13386.6 15493.4 14761.6 13296.7 13494.4 14694.3 10236 10502 10221.1 10167.1 10294.1 9881.57 10190.1 10639.3 10538.8 10665 11191.8 10870.8 10476.9 10691.9 10851.4 11218.7 11775.6 11253.4 10830.3 11225.1 11252.2 15662 16774.3 14627.5 15610.1 18718.3 16818.9 18864.8 15453.2 17424.1 23676 18941.3 17399.9 9774.45 9103.04 9881.29 10163.9 9778.59 9866.69 10240 10089.2 9942.84 8994.03 9872.34 9026.48 7669.06 8998.18 9038.22 7843.53 5982.93 7487.67 7814.67 7527.17 9162.65 6088.08 5821.07 7999.25 7852.8 6294.9 8813.21 6117.72 8138.21 5810.41 6355.41 7816.41 8674.07 8197.46 9542.67 5943.09 23445.6 18587.3 24462.9 23337.1 24615.3 29865.4 14212.8 13319.2 14665.8 13314.3 13153.3 12413.9 13113.7 13362.3 14184.1 12380.3 11771.9 12433 13129.7 12370.7 12450.1 11679.2 11798.8 12357.1 11794.3 11688.8 11248.4 15648.3 14131.1 14765.3 16662.2 15677.6 14738.4 10497.1 10834.6 10504.1 10231.2 10528.1 10480.4 10483.2 10280.3 10237.9 10130 10100.3 10224.5 10246.3 10076.4 10277.6 10867.3 10776.1 10465.3 10788 10848.2 11241.9 11068.8 10767.7 11256.2 11673 11068.7 11256.1 19351.2 17581.9 16841.7 17568.2 15552.4 16816.9 18924.2 19548.7 16623.2 22927.5 19561.4 18946.1 9772.01 9896 9132.15 10165.8 9881.49 9777.88 10097.5 10100.4 9849.97 10095.8 10054.2 10099 10150.7 10088.1 9997.91 9397.31 7982.95 9016.17 9978.15 9353.98 9042.53 7895.6 9497.63 8547.12 10216 8156.51 8553.79 8210.8 10284.1 10396.5 7850.15 10796.8 9656.93 9347.33 10090.7 8715.2 10131.3 10009.8 8681.78 9833.75 10741.3 13753.7 19335.6 23191.2 22993.5 28380.5 23017.6 29962.6 23474 27721 22871.5 36398.3 28048.1 30357.8 13704.6 13157.5 14147.2 15565.1 14878.2 14216.2 14869.1 13643 14220.9 12365 13133.1 12885.7 13167.5 13694.5 12874 12312.4 12392 12873.9 12304.7 11641.3 12390.3 11622.8 11095.3 11101.4 11683.1 12275.7 11621.4 11054.1 11686.8 11606.7 15695.1 17422.1 16335.8 14782.6 15676.9 16322.8 10048.5 10242.7 10469 10274.2 10008.3 10499.2 10767 10291.7 10477.8 9839.47 10269 10023.3 9883.29 10086.7 10233.4 10014.8 10072.2 9785.21 10111.3 9854.02 9744.26 10777.9 11066.8 10630.7 10257.4 10791.8 10620.5 11103.7 11084 10597 17418.1 19545 19932.7 19899.2 19673 22613.2 18064.8 17630.8 19699 17566 18069.1 16214.9 9895.83 10299.1 10185.8 9956.62 10091.5 10246.2 9463.06 9873.84 10216.1 10102.5 10131.5 10231.5 10153.5 9998.04 10089.5 10074.1 10014.5 9785.98 10025.5 9703.77 9766.16 9704 10025.2 9765.7 10014 9399.09 10271.4 10910.2 10152.4 9995.73 10249.7 10900.2 11350 11625.6 10166.3 11393.3 10647.9 9938.16 11900.2 10443.5 14106.9 13843.4 13579.7 10816.9 11869.6 10858.6 10062.5 10714.4 10102 10175.3 10687.6 14104.1 13963.5 18204.1 22645.2 19713.3 22810.4 22537.5 23061.2 26248.9 22652.6 27913.3 26757.8 28395 32880.7 26505.1 27823.1 36445.2 33626.3 33180.3 36879.9 43869.4 14783.1 14108.5 13740.6 13644.1 13048.8 12928.6 14095 12990.8 13732.4 14016.8 14869.8 15409.5 14881.2 16212.9 15425.5 13036.3 12270.7 12927.4 12330.8 12269.2 11542.1 12991.5 12280.9 12321.9 17907.4 16792.2 16360 16321.6 16785.2 15333.7 20088.3 17916.3 19862.1 20050.2 19987.6 22316.8 18104.4 19869.7 18358.7 18039.3 18365.7 16676.7 10253.9 10227.7 10509.6 10078.3 10249.1 10284.1 10244.3 10282.8 10491.5 10655.2 10208.9 10545.4 9854.87 10113.1 9745.1 10236.8 10088.2 9884.14 11230.6 10917.1 10643.7 11650.7 10914.7 11234.4 10868.5 11693.8 11314.6 12380.6 11745.6 11311.2 11676 12289.9 11356.8 13538.1 13752.3 11642.9 12344 13401.5 11804.2 18282.7 13563.1 17674.3 14037.8 15694.2 17239.1 14092.9 13399.9 15601.4 10858.6 10707 10485.2 10877.6 11203.8 10680.7 23872.4 18527.3 17548 22317.7 19880.2 22476.4 25155 22236 22658 25549.7 22338.7 26412.7 30044.2 25348.8 26779.1 33017.9 30671.1 26307.1 39725.4 33068.9 43874 38675.7 30203.9 33761 52419.5 39003.4 44435.7 14107.5 14741.4 13858.5 14755.6 14091.2 15334.6 14091.7 13849.6 12991.8 13066.4 14003.7 13072.1 12208.2 13062.4 13064.4 15798.9 14730.8 15406.5 16669.8 15807.5 15437.1 16811.7 18213.9 17087.4 15724.1 16775.6 17082.8 20102.4 22054.7 20110.6 18219.9 20011.1 20136.6 18379.9 19955.5 18541.2 16977.7 18335.4 18541.9 10507.4 10842.3 10505 10234.5 10484.1 10535.7 10271.9 9841.09 10024.9 10473.2 10245.7 10049.9 11230 11259.3 11784.3 11258.2 11236.3 10838 11684.2 11200.8 11808.5 12462 12312.2 11648.8 12422.7 11692.8 11800.3 12438 13318.9 12336.7 13373.4 13436.9 12259.3 13399.8 14772.1 15507.7 13507.7 13307.7 14705.1 15466.5 18881.8 17441.8 18958.9 23702.2 17416.8 16831.8 18735.4 15623.3 14638.5 16787.1 15676 10874.3 10469.5 10780.2 11248.2 10855.5 10791.9 24643.4 23360.1 29896.9 23468.3 24491.1 18604.4 22301.1 24388 22019.3 22191.4 22066.5 19956.4 22057.6 25288.9 24664.5 25163.1 30126.6 28392.2 24544.4 25496.9 28012.2 28151.4 30474.3 33251.8 30036 38713.9 33624 48716.6 38675.8 52535.7 39437.4 39673.6 47720.2 39542 39381.6 33292.5 48190.3 53227.1 64263.9 14792 15721.5 14896.5 13791.9 14775.1 14898.3 14827.3 15800 16037.4 15816.7 16980.9 16044 17077.1 17290.1 15936.9 17301 17090.1 18420.5 21870 20153.2 20134 20082.5 20161.7 18412.3 20027.8 18692.7 18537.9 18683 17168.8 18527.1 10276.6 10502.9 10010.7 10481.7 10293.9 10771.5 11677.9 11262.1 11073 11802.4 11254.7 11693.5 11262.1 10772.3 11073.2 12364.3 11806.9 11683.9 12387.3 12443.1 11780.4 12459.9 12377.9 13137.7 13325 12424.1 13161 14193 13372.5 13121.8 13329.5 14221.4 14677 16675.6 14748.9 15688.1 14776 14140.1 15658.9 18941.5 16636.3 19565.4 22950.1 18962.8 19578.3 16854.9 17595.2 19368.2 17581.6 16830.2 15563.1 10782.2 10633.9 11071.2 10260.4 10623.8 10795.9 23040.4 28408.2 29994 23014.3 23214.1 19352.5 23497.1 22892.2 27748.2 30389.7 28075.5 36434.5 21864.7 24508.9 24106.4 24625.4 26758.6 24040.5 27010.8 24381.1 28111 20015.2 21993.5 21934.2 21915.2 22050 23914.4 31002.1 28004.5 33293 26870.8 28315.5 30696 30765.7 33606.6 35978.5 33282.1 39320.7 36340.6 55950.2 47891.8 64283.8 48776 54673.3 43332.6 39421.6 47837.3 43861.2 39843.8 43173.8 35992 78734.9 54892.3 65403.5 20149.2 21797.1 20237.9 18546.2 20138.9 20234.2 11099.5 11627.9 11105.6 11688.2 11626.3 12281.9 11611.7 11691.8 11058.5 12397.4 11646.5 12310.9 10600.7 11088.4 11107.7 12372.2 12892.8 13141.2 12881.1 12399.1 12318.7 13712.2 14156.4 13165.4 12881.2 13702.3 13175.4 14229.8 13650.7 14878.3 14225 14887.3 15576.1 14791.9 16334 15687.8 16346.9 17435.6 15706 17431.5 19949 19562.2 19915.4 22633.8 19690.2 19715.1 17644.5 18078.1 17579.6 16226.1 18082.4 26529.1 32912 28422.7 27850.4 33658.2 36481.4 22673.2 26782 27940.6 22664.2 22831.2 19729.5 23082.2 22556.3 26272.8 33211.8 43911.6 36916.5 26021.7 23805.4 24084.3 23836.4 21782.3 24024.6 26853.9 26188.9 23906.2 26750.5 30765.1 29312.6 26106.5 26973.1 29099.1 21906 21958.6 20089.4 21918.1 23707.4 21952.6 33555.1 30703.8 36014.7 30972.2 33275.3 29156.3 43162.7 39375.8 36006.1 38967.3 33295.2 36329.6 60539.2 54751.4 78609.4 43225.4 54583.7 47802.8 55599.4 59773.2 47067.5 38960.2 43704.9 47147.5 77674.9 81997.3 100336 77673.2 59313.8 81864.3 11547.4 12275.4 12337 13043.3 12934.5 12277.1 12287 12998.6 12328.2 13652 12935.6 13055.8 14103.2 13740.2 12997.8 13748.3 14116.7 14792.5 15435.3 16224.2 14890.6 14025 15419.4 14879.2 16371.4 16803.6 17920.7 15343.6 16796.6 16333 20103.8 19878.4 17929.6 20065.6 22335.6 20004.1 18371.8 19885 18117.9 16688.1 18378.9 18052.7 26436.6 22357.5 25571.3 30698.5 33049.3 26331 30071.1 26803.4 25370.1 33100.4 39762.2 43916.1 33793.1 30230.8 38711.6 22677.1 22253.4 25176.2 22495.2 19895.5 22335.3 44478.3 39039.5 52468.8 23696.1 26105.8 25796.3 26166.3 28131.3 25752.4 28245.9 26017.1 29152.4 21815.1 23806.7 23873.2 23823.7 25689.6 23855.3 33302.2 31589.4 29095.2 31414.8 28137.1 29279.4 33280 38942.7 36019.7 31406.9 33511.7 35784.1 35744.6 39254.7 41659.2 41922.9 38963.8 47020.4 59450.6 50029.7 47112.4 60979.2 49383.8 60098.9 76017.8 61117 59897.7 49808.8 41499.2 47469.2 97857.1 76419.3 101321 78097.1 94617.9 74838.5 60183.5 77071.6 75016.8 97164.9 102323 131698 12214.4 13071.7 13069.4 13079.4 14011.9 13073.5 14750.6 14115.8 13866.8 14099.5 14764.7 15344.5 14100 12999.1 13857.9 14739.9 15809.2 15416.4 15817.8 16681.1 15447.1 18226.9 16823.3 17099 16787 15734.4 17094.4 22072 20118 20125.4 20026.4 18232.9 20151.5 18393.1 18554.2 19970.2 18555 18348.5 16989.3 25310.2 22074.9 24684.1 28035.7 25518.4 24563.9 28416 30153.5 25184.3 38749.7 30062.9 33653.5 30501.5 28174.9 33280.9 39417 39578.5 33321.6 38711.6 48761.4 52585.1 47764.1 39710.4 39472.8 22318.6 22035.8 24407.4 22208.8 19971.1 22083.1 48234.7 64323.9 53277.2 25778.2 26010.7 23736.9 25799 27476 25989.8 28172.6 27527.8 25697.3 28157.1 31417.2 30299.8 27516.2 28238.8 30221.6 31396.7 35771.3 33905.5 31551.3 33728.2 30151.6 35982.9 38038.9 33732.8 38188.1 35806.4 41555.6 43604.2 37921.7 41854.3 49531.6 43694.9 41713.4 50002.2 60312.6 51082.4 43281.3 49989.7 51056.8 61038.6 60859.5 50435.6 60784.8 61476.2 73480.6 116107 88830.2 98045.9 120552 95309.4 133158 95825.8 89862.9 73548.6 87465.6 72727.8 75248.8 73018.8 59841.3 74427.4 172422 119350 134738 15731.7 14801.2 14905.9 14784.3 13800.1 14907.8 16048.1 15810.3 14836.7 15827 16054.6 16992.4 17312.9 18433.4 17101.7 15947.5 17302.1 17088.7 20148.9 20167.7 21886.5 18425.3 20176.3 20097.3 18540.1 17180.6 18696.2 20042.3 18551 18705.9 21881.2 24124.8 24528.4 27032.4 28134.6 24400.4 24058.8 26780 24645 28028.1 31028 33322.1 28339.2 26892.2 30721.6 30791.3 36009.6 33636 36372 39355.9 33311.3 39879.5 36023.1 43212.2 47881.3 39457 43900.2 54723.2 48820.8 43371.1 47935.8 56001.2 64343.9 23932.7 22066.7 21931.3 22010.1 20029.7 21950.4 65464.6 54942.5 78808.4 25879.4 27602.3 28467.3 28405.2 27645.6 30002 33754.2 33072.8 30092.6 30786.9 28307.6 30171.8 32916 30713.8 30308.5 35980.6 32953.1 33920.7 37972.2 36101.2 33777.7 38181.7 39772.9 35955.1 43382.7 39822.1 38121.5 43703 44633.2 39590.5 44619.4 43773.4 50532.8 59864.8 51115.8 51325.2 51170.3 44202 51053.5 71569.6 59604.1 61076.5 60625.9 59662.5 50436.5 117032 89315.7 88051 87497.1 119700 114700 115111 121475 155430 114487 174558 162650 89185.6 71580.6 88101.9 72974.1 87878.8 70667.8 58617 72597.5 70520.8 176707 233361 162044 20163.8 20252.5 21813.2 20248.9 20153.5 18559.3 24102.7 23823.2 26041.7 23854.3 24042.9 21798.4 26875.3 23924.5 26209.1 26771.8 29335.9 30790.7 29122.3 26994.6 26126.5 30998 29179.5 33302.8 36045.8 30729.3 33582.8 36037.2 39409.5 43201.1 39000.7 36360.9 33322.7 43743.7 38993.5 47189 54633.5 43263.8 47844.8 59827.1 55650 47109 54801.3 60593.6 78683 21968.7 23725.1 21934.3 20103.9 21974.8 21922.1 82073.8 77745.4 100430 59367.1 77743.9 81940.3 30544 33009.9 33316 33090.3 35386.9 33222.6 35996.4 35532.6 32932.9 39658.3 37744.5 36060.5 37670.2 35449.2 36136.2 37698.3 39855.6 40631.5 39950.6 44259.8 40606.7 44682.2 44847.2 50473.4 44617 44749.4 40404.2 44271.6 51020.4 50351.3 51363.3 58613.3 50267.3 59414.5 57354 49557.9 59812.7 69142.1 57407 90501.1 110477 85380.8 69112.2 89685.8 84841.4 110703 159889 144073 104185 114801 138840 113435 103225 82999.6 236484 209772 155124 163103 200340 145334 66191.2 70805.5 82935.6 56424.9 70313.7 65947.2 210096 238883 319439 23824.5 21831.2 23891 23713.8 25815.9 26125.9 25709 23841.5 23873.1 28267.7 29175.6 26037.2 25771.9 28153 26186.5 29118.4 31614.6 33329.7 31439.8 29302.7 28158.8 38975.9 33307.5 36049.3 33539.4 31431.8 35813.5 38997.2 41958.4 47061.8 41694.5 39288.2 35773.9 50073.1 59504.1 47153.9 41534.3 49852.1 47510.9 60152.9 49426.6 61033.1 76086.7 59951.6 61170.9 75083.3 77141.6 60236.5 76488.6 97945.9 101415 94703.3 78168.1 74904.8 97252.7 131820 102420 35437.7 36165.4 33162.1 37741.3 38044.5 35418.2 37861.1 36003.1 35572.3 37942.8 37894.7 40365.8 40911.4 37872 40551.1 44285 40781.5 40787.9 44021.6 44937.4 49573.1 40617 44617.4 44300.3 48991.8 43485.8 50047.7 56393.3 48986.2 50348.7 57372.2 64756.9 53627 48427.1 57020.6 53672.8 100514 76946.1 85141.7 76501.4 64821.7 84602.7 206542 174834 139069 169828 124368 143307 123062 100702 142509 88477.7 75218.6 102422 120588 89039.7 102684 259653 199702 325097 209880 248845 176590 75115.7 58911.3 65869.7 65500.6 58960.7 53002 261411 327215 435813 26030.3 25797.6 23754.6 25716.7 27548.7 28194.4 27496.9 25818.5 26009.3 30323.1 31442.2 28178.9 27537 30244.9 28260.6 31421.7 33932.4 35800.7 30174.7 33754.9 31576.3 38219.2 41590.7 35835.8 33759.4 38069.9 36012.5 49574.5 41748.8 43731.5 41889.7 37952.5 43640.7 51100.5 50033.1 43317.4 50045.7 51126.2 60365.8 60837.5 73545.6 61530.5 50478.7 60912.3 61092.4 72790.8 87542.2 75315.3 59893.1 73082.1 74493.2 89941.4 95912.2 73613.8 98133.8 88908 116208 133280 95395.3 120655 172575 134860 119453 35960.1 37910.5 38944.2 38101.6 40600.8 38673.4 38641.6 40574.3 41243.6 40877.8 43879.9 40798.3 43702 42691.1 40865.1 48347.2 44916.1 44175.4 44145 44801.5 42376.2 46779 44718.5 48619.1 46571.4 48904.7 52972.2 53489.4 58190.7 48060.4 46436.5 53102.1 48462.1 75853 64788.8 58228.5 64665.3 76155.7 87188.5 172721 198501 142917 254257 201335 170095 120816 173060 141816 100823 122001 140390 122166 100466 87319.7 70633.3 64103.8 87620.8 99619.9 70254.4 87873.1 286935 202395 255469 288796 248467 437392 58642.1 64049.6 48958.5 58154.7 49577.6 48045 408661 286331 446148 612744 403328 459428 27623.2 25898.9 28488.8 30025 27666.6 28426.6 33780.8 30115.7 33098.2 30810.1 30194.9 28328.9 30331.8 30736.9 32941.3 33804.5 36129.7 38003.1 36009 33947.5 32978.4 38152.6 39854.3 43419 35983.4 39805 38212.8 39622.4 44670 43739.6 44656.2 50576 43810.1 51213.4 51097.2 44238.4 51369.1 51158.9 59916.7 60678.5 50479 59713.4 71631.7 61129.4 59654.9 88179 71642.7 89261.9 70580.8 72660.4 58667 73037.2 70727.8 87954 117133 88128.3 89391.8 114794 119803 87571.7 115205 155558 121580 162786 174712 114587 176868 162176 233559 44426.3 44046 42798 44791 46471.2 43550.1 43349.9 46572.8 48091.8 46165.5 44110.8 43761.5 49204.4 41546.7 48142.5 42630.7 43671.2 47545.7 64360.1 70028 48952.2 63707.6 49884.8 49145.6 198514 287258 217655 199691 156082 140678 156506 198423 218478 156046 109983 140614 110324 99844.2 140862 74489.3 99844.3 109993 75429.6 70150.6 99374.6 70211.6 74936.4 47679 69228.1 49059.2 49493.5 284204 306829 218523 304246 284986 401314 48299.2 39240.3 42145.6 49178 49530.3 37784.4 456356 306055 401980 604205 457227 396865 447555 615624 744549 33035.3 30567 33341 35414.1 33115.7 33247.5 35559.8 36024.7 32958.2 37699.8 36164.7 35476.3 39690.3 36088.9 37774.1 39887.8 37727.9 40663.8 44296.3 39982.9 40639 44785.6 44653.9 40436.2 44718.5 50515.9 44884.2 51406.5 50309.1 58663.3 51063.4 44307.4 50393 49598.9 57402.2 59465.3 57455.4 69201.1 59863.6 85451.7 110568 90578 69171.1 84912.1 89762.1 70373.6 56472.4 66002.6 83005 70865.6 66247 113528 83068.8 103307 138948 114894 104268 144184 160019 110794 155252 209922 236681 163235 145443 200489 210246 319673 239075 48663.9 31682.7 49472.8 48202.3 33532.5 38787.7 305617 229447 218751 164524 156464 217542 231596 164012 216576 110349 154926 115589 155307 165149 114094 77317.5 75186.7 108747 75426.2 109920 115339 75143.3 76683.3 44570.9 48712.7 73586.4 46524.6 33169.8 46936.7 25113.4 48706.1 45921.1 22893.9 230183 302343 325914 306708 454974 320639 449523 461211 321827 459159 605993 458070 609509 443103 729075 830472 601064 742962 35464.8 33187 36192.4 37890.1 35599.5 36029.9 38073.7 37770.9 35445.4 37924.5 37971.9 40397.9 37901 40943 40583.4 40813 44320.9 40820.4 44973.8 44056.2 49614.2 44653.6 40648.3 44334.9 50089.3 43519.8 49031.6 56440.8 50390.3 49026.2 53717.4 57068.7 48466.5 64811.6 57420.3 53671.9 85212.3 77009.7 100595 76564.5 84673.3 64876.4 59010.3 65556.1 53046.1 75178 65925.1 58961.3 89110.8 120678 102766 75280.9 88548 102504 123153 142618 100782 143416 124460 169947 139176 174954 206692 259819 325331 199854 176706 248999 210035 327465 261571 436097 167580 229529 245886 244983 231729 324807 165448 229592 168895 162598 114209 115717 111358 164069 169134 77082.4 112980 73189.3 115447 113367 69766.5 74837.8 41199.5 46065 38634.8 77273 71816.5 43963.4 13633.9 24854 46273.9 40078.8 11169.9 356457 245097 324051 459365 356107 326097 664102 496479 457751 494825 357019 460743 609263 653810 458384 611314 809279 763372 661560 607964 777283 804936 811747 778094 38973 37939.6 35986.9 40632.1 38130.7 38702 40909.3 40828.2 43914.3 41273.9 40605.7 38670.1 44836.1 44179.7 42407.1 44210 44950.9 48386.5 43736.3 40895 42722.3 46608.5 53016.4 48944.5 44753 46816.1 48658.8 48100.2 58239.9 53533.9 46473.3 48501.7 53146.6 87258.2 76218.6 64720.5 75916.2 58277.8 64843.3 58691.6 49001.1 64103.9 58204.3 48084.4 49619.9 70692.2 87691.4 64158.2 100542 122258 87389.5 70314.3 99696.1 87943.1 120906 141912 173178 100900 140487 122092 201441 254399 170215 143012 198611 172838 437658 248627 288829 255607 202493 287006 408635 446416 286343 612967 459660 403318 168501 172366 104593 173129 169011 243898 112986 166356 107484 170364 245284 269343 245546 356820 270749 109309 53061.9 72613.4 47770.7 113579 106111 32235.8 39991.6 70202.7 46374.6 30112.9 74422.4 13412.9 38195.1 2744.13 40890 30007.4 3691.44 355971 499462 418661 271647 356474 417812 623206 493586 672643 631592 666072 852734 906127 670199 779975 663479 914146 858771 495702 619836 426250 808260 905394 782722 918158 920126 769933 724630 946088 773359 44078.2 44460.6 42829.2 43582.1 46508.1 44825.6 46202.3 43793.4 44143.5 48131.3 46609.7 43382.3 48181.9 41579.2 49246.6 42663.5 47585.1 43703.5 49187.8 49929.6 63762.2 48997.4 70087 64414.4 48341.3 42177.8 39272.9 49575.1 49220.1 37816.7 70270.2 47726.5 74999.4 69287.3 49538.4 49106.2 99451.8 70209.7 75492 99920.7 110404 140960 110075 99920.2 74553 199795 140776 156171 140711 110064 156138 218530 198529 156589 198629 217696 287306 304138 401229 285058 218541 306730 284259 305917 455841 401914 456580 604404 396863 744650 615869 446950 169568 172281 266082 169985 102568 106090 98231.5 173969 166396 39764.9 49473.4 103573 102999 38636.7 105955 270057 422096 309141 160466 270741 305523 48391.1 41564.5 23122 49897.6 38879.6 43790.6 28873.8 47030.4 20881.7 2411.19 28948 21446.3 420076 521837 313164 632700 523414 420516 782343 623038 865150 624750 779478 540238 1.00995e+06 796715 861450 916085 1.05912e+06 864747 1.06663e+06 1.0165e+06 856706 1.06811e+06 910206 1.07123e+06 919497 925599 1.06558e+06 908609 995367 1.08357e+06 991068 928179 759213 698528 1.03579e+06 706141 48711.2 49517.4 31714.8 33565 48246.9 38819.7 46983.5 33201.4 25146 45970.1 48752.6 22926.1 48760 46572.6 73649.4 44619.5 76749.6 75205.3 77382.1 108830 75249.8 115422 110001 75492.6 110431 115669 155020 164579 217580 156559 114173 165209 155402 218803 229348 305476 164053 231498 216626 454389 306610 320146 302233 230039 325388 459645 449031 321249 456587 603699 458468 607160 729216 442441 829840 742707 599359 132137 165153 298288 43777.1 173787 106756 100399 160886 48997.9 40081.1 105731 38718.5 37771.3 42196.9 67193.8 43826.2 36218.4 65953.2 533284 365073 308754 362468 115745 307605 381084 524492 656062 529268 801429 651381 784338 1.02438e+06 928915 784582 928787 686498 1.02033e+06 1.06939e