# vtk DataFile Version 2.0
Exported by getfem++
ASCII
DATASET UNSTRUCTURED_GRID
POINTS 3042 float
 -9.62185 3.49261 0 -9.58525 4.44814 0 -10.4705 4.25902 0
 -9.58525 4.44814 0 -9.62185 3.49261 0 -8.63076 4.13036 0
 -9.62185 3.49261 0 -8.83045 2.87469 0 -8.63076 4.13036 0
 -9.58525 4.44814 0 -10.1123 5.16797 0 -10.4705 4.25902 0
 -9.08233 5.1954 0 -10.1123 5.16797 0 -9.58525 4.44814 0
 -9.08233 5.1954 0 -9.58525 4.44814 0 -8.63076 4.13036 0
 -10.1123 5.16797 0 -11.2128 5.03645 0 -10.4705 4.25902 0
 -7.48921 4.32518 0 -8.02684 5.18994 0 -8.63076 4.13036 0
 -8.02684 5.18994 0 -9.08233 5.1954 0 -8.63076 4.13036 0
 -7.79264 3.34111 0 -7.48921 4.32518 0 -8.63076 4.13036 0
 -8.83045 2.87469 0 -7.79264 3.34111 0 -8.63076 4.13036 0
 -7.79264 3.34111 0 -8.83045 2.87469 0 -7.88645 2.24054 0
 -10.1123 5.16797 0 -10.7131 5.98116 0 -11.2128 5.03645 0
 -10.1123 5.16797 0 -9.61396 6.06059 0 -10.7131 5.98116 0
 -9.08233 5.1954 0 -9.61396 6.06059 0 -10.1123 5.16797 0
 -9.08233 5.1954 0 -8.02684 5.18994 0 -8.53784 6.09949 0
 -9.61396 6.06059 0 -9.08233 5.1954 0 -8.53784 6.09949 0
 -11.2128 5.03645 0 -10.7131 5.98116 0 -11.8887 5.85354 0
 -6.97765 5.21733 0 -8.02684 5.18994 0 -7.48921 4.32518 0
 -6.97762 3.65981 0 -6.52118 4.36297 0 -7.48921 4.32518 0
 -6.52118 4.36297 0 -6.97765 5.21733 0 -7.48921 4.32518 0
 -7.79264 3.34111 0 -6.97762 3.65981 0 -7.48921 4.32518 0
 -8.53784 6.09949 0 -8.02684 5.18994 0 -7.46476 6.12002 0
 -8.02684 5.18994 0 -6.97765 5.21733 0 -7.46476 6.12002 0
 -7.79264 3.34111 0 -6.92339 2.796 0 -6.97762 3.65981 0
 -6.92339 2.796 0 -7.79264 3.34111 0 -7.88645 2.24054 0
 -6.92339 2.796 0 -7.88645 2.24054 0 -6.89648 1.67939 0
 -10.1725 6.92411 0 -11.3102 6.83419 0 -10.7131 5.98116 0
 -9.61396 6.06059 0 -10.1725 6.92411 0 -10.7131 5.98116 0
 -10.7131 5.98116 0 -11.3102 6.83419 0 -11.8887 5.85354 0
 -10.1725 6.92411 0 -9.61396 6.06059 0 -9.06516 6.98756 0
 -9.06516 6.98756 0 -9.61396 6.06059 0 -8.53784 6.09949 0
 -7.96911 7.02803 0 -8.53784 6.09949 0 -7.46476 6.12002 0
 -7.96911 7.02803 0 -9.06516 6.98756 0 -8.53784 6.09949 0
 -11.8887 5.85354 0 -11.3102 6.83419 0 -12.5042 6.71474 0
 -6.97765 5.21733 0 -6.40611 6.11642 0 -7.46476 6.12002 0
 -6.40611 6.11642 0 -6.97765 5.21733 0 -5.96818 5.19131 0
 -6.97765 5.21733 0 -6.52118 4.36297 0 -5.96818 5.19131 0
 -6.52118 4.36297 0 -6.97762 3.65981 0 -6.16032 3.47966 0
 -6.97762 3.65981 0 -6.92339 2.796 0 -6.16032 3.47966 0
 -5.56761 4.28876 0 -6.52118 4.36297 0 -6.16032 3.47966 0
 -6.52118 4.36297 0 -5.56761 4.28876 0 -5.96818 5.19131 0
 -6.88246 7.0475 0 -7.96911 7.02803 0 -7.46476 6.12002 0
 -6.40611 6.11642 0 -6.88246 7.0475 0 -7.46476 6.12002 0
 -5.84826 2.39577 0 -6.92339 2.796 0 -6.89648 1.67939 0
 -6.92339 2.796 0 -5.84826 2.39577 0 -6.16032 3.47966 0
 -5.98196 1.24441 0 -5.84826 2.39577 0 -6.89648 1.67939 0
 -10.1725 6.92411 0 -10.7339 7.80088 0 -11.3102 6.83419 0
 -9.60975 7.87077 0 -10.1725 6.92411 0 -9.06516 6.98756 0
 -10.1725 6.92411 0 -9.60975 7.87077 0 -10.7339 7.80088 0
 -11.3102 6.83419 0 -11.8787 7.71891 0 -12.5042 6.71474 0
 -11.3102 6.83419 0 -10.7339 7.80088 0 -11.8787 7.71891 0
 -8.49356 7.92784 0 -9.60975 7.87077 0 -9.06516 6.98756 0
 -8.49356 7.92784 0 -9.06516 6.98756 0 -7.96911 7.02803 0
 -7.38032 7.96917 0 -8.49356 7.92784 0 -7.96911 7.02803 0
 -7.38032 7.96917 0 -7.96911 7.02803 0 -6.88246 7.0475 0
 -11.8787 7.71891 0 -13.0594 7.62078 0 -12.5042 6.71474 0
 -6.88246 7.0475 0 -6.40611 6.11642 0 -5.80631 7.04112 0
 -6.40611 6.11642 0 -5.34644 6.06784 0 -5.80631 7.04112 0
 -5.34644 6.06784 0 -6.40611 6.11642 0 -5.96818 5.19131 0
 -4.99229 5.10223 0 -5.34644 6.06784 0 -5.96818 5.19131 0
 -5.56761 4.28876 0 -4.99229 5.10223 0 -5.96818 5.19131 0
 -5.16723 3.36939 0 -5.56761 4.28876 0 -6.16032 3.47966 0
 -5.84826 2.39577 0 -5.16723 3.36939 0 -6.16032 3.47966 0
 -5.56761 4.28876 0 -5.16723 3.36939 0 -4.60869 4.21173 0
 -4.99229 5.10223 0 -5.56761 4.28876 0 -4.60869 4.21173 0
 -6.281 7.99264 0 -6.88246 7.0475 0 -5.80631 7.04112 0
 -6.281 7.99264 0 -7.38032 7.96917 0 -6.88246 7.0475 0
 -5.16723 3.36939 0 -5.84826 2.39577 0 -4.70715 2.45945 0
 -5.84826 2.39577 0 -5.14811 1.69431 0 -4.70715 2.45945 0
 -5.98196 1.24441 0 -5.14811 1.69431 0 -5.84826 2.39577 0
 -5.98196 1.24441 0 -4.92692 0.832238 0 -5.14811 1.69431 0
 -10.7339 7.80088 0 -9.60975 7.87077 0 -10.163 8.75752 0
 -10.7339 7.80088 0 -11.2835 8.69324 0 -11.8787 7.71891 0
 -11.2835 8.69324 0 -10.7339 7.80088 0 -10.163 8.75752 0
 -9.60975 7.87077 0 -8.49356 7.92784 0 -9.04007 8.82122 0
 -9.60975 7.87077 0 -9.04007 8.82122 0 -10.163 8.75752 0
 -11.8787 7.71891 0 -12.411 8.63076 0 -13.0594 7.62078 0
 -11.8787 7.71891 0 -11.2835 8.69324 0 -12.411 8.63076 0
 -8.49356 7.92784 0 -7.38032 7.96917 0 -7.90996 8.87766 0
 -9.04007 8.82122 0 -8.49356 7.92784 0 -7.90996 8.87766 0
 -7.38032 7.96917 0 -6.281 7.99264 0 -6.75459 8.93219 0
 -7.90996 8.87766 0 -7.38032 7.96917 0 -6.75459 8.93219 0
 -13.0594 7.62078 0 -12.411 8.63076 0 -13.552 8.57006 0
 -4.5938 7.11835 0 -5.30773 7.91266 0 -5.80631 7.04112 0
 -5.34644 6.06784 0 -4.5938 7.11835 0 -5.80631 7.04112 0
 -5.30773 7.91266 0 -6.281 7.99264 0 -5.80631 7.04112 0
 -4.5938 7.11835 0 -5.34644 6.06784 0 -4.28341 5.88409 0
 -5.34644 6.06784 0 -4.99229 5.10223 0 -4.28341 5.88409 0
 -4.99229 5.10223 0 -4.14111 4.9571 0 -4.28341 5.88409 0
 -4.14111 4.9571 0 -4.99229 5.10223 0 -4.60869 4.21173 0
 -5.16723 3.36939 0 -4.15794 3.32138 0 -4.60869 4.21173 0
 -4.15794 3.32138 0 -5.16723 3.36939 0 -4.70715 2.45945 0
 -4.15794 3.32138 0 -3.62776 4.21506 0 -4.60869 4.21173 0
 -3.62776 4.21506 0 -4.14111 4.9571 0 -4.60869 4.21173 0
 -6.281 7.99264 0 -5.30773 7.91266 0 -5.40081 9.0982 0
 -6.75459 8.93219 0 -6.281 7.99264 0 -5.40081 9.0982 0
 -3.70876 2.37764 0 -4.15794 3.32138 0 -4.70715 2.45945 0
 -4.27718 1.54496 0 -3.70876 2.37764 0 -4.70715 2.45945 0
 -5.14811 1.69431 0 -4.27718 1.54496 0 -4.70715 2.45945 0
 -5.14811 1.69431 0 -4.92692 0.832238 0 -4.27718 1.54496 0
 -4.92692 0.832238 0 -3.90279 0.516622 0 -4.27718 1.54496 0
 -9.60215 9.71543 0 -10.714 9.64965 0 -10.163 8.75752 0
 -9.04007 8.82122 0 -9.60215 9.71543 0 -10.163 8.75752 0
 -10.714 9.64965 0 -11.2835 8.69324 0 -10.163 8.75752 0
 -10.714 9.64965 0 -11.8147 9.59564 0 -11.2835 8.69324 0
 -11.2835 8.69324 0 -11.8147 9.59564 0 -12.411 8.63076 0
 -8.47017 9.78122 0 -9.60215 9.71543 0 -9.04007 8.82122 0
 -8.47017 9.78122 0 -9.04007 8.82122 0 -7.90996 8.87766 0
 -12.411 8.63076 0 -12.9039 9.55997 0 -13.552 8.57006 0
 -11.8147 9.59564 0 -12.9039 9.55997 0 -12.411 8.63076 0
 -7.32453 9.82823 0 -8.47017 9.78122 0 -7.90996 8.87766 0
 -7.32453 9.82823 0 -7.90996 8.87766 0 -6.75459 8.93219 0
 -6.14682 9.87978 0 -6.75459 8.93219 0 -5.40081 9.0982 0
 -6.14682 9.87978 0 -7.32453 9.82823 0 -6.75459 8.93219 0
 -12.9039 9.55997 0 -13.9792 9.56117 0 -13.552 8.57006 0
 -4.5938 7.11835 0 -4.45646 8.35621 0 -5.30773 7.91266 0
 -4.5938 7.11835 0 -3.55474 7.83314 0 -4.45646 8.35621 0
 -3.41882 6.67352 0 -4.5938 7.11835 0 -4.28341 5.88409 0
 -3.41882 6.67352 0 -3.55474 7.83314 0 -4.5938 7.11835 0
 -5.30773 7.91266 0 -4.45646 8.35621 0 -5.40081 9.0982 0
 -4.14111 4.9571 0 -3.19313 5.35727 0 -4.28341 5.88409 0
 -3.19313 5.35727 0 -3.41882 6.67352 0 -4.28341 5.88409 0
 -3.19313 5.35727 0 -4.14111 4.9571 0 -3.62776 4.21506 0
 -3.62776 4.21506 0 -4.15794 3.32138 0 -3.14157 3.27651 0
 -4.15794 3.32138 0 -3.70876 2.37764 0 -3.14157 3.27651 0
 -2.58145 4.24481 0 -3.62776 4.21506 0 -3.14157 3.27651 0
 -2.58145 4.24481 0 -3.19313 5.35727 0 -3.62776 4.21506 0
 -3.70876 2.37764 0 -2.68712 2.28036 0 -3.14157 3.27651 0
 -3.28878 1.37728 0 -2.68712 2.28036 0 -3.70876 2.37764 0
 -4.27718 1.54496 0 -3.28878 1.37728 0 -3.70876 2.37764 0
 -4.27718 1.54496 0 -3.90279 0.516622 0 -3.28878 1.37728 0
 -3.90279 0.516622 0 -2.89141 0.281314 0 -3.28878 1.37728 0
 -9.60215 9.71543 0 -9.05723 10.6954 0 -10.1707 10.6007 0
 -9.05723 10.6954 0 -9.60215 9.71543 0 -8.47017 9.78122 0
 -10.714 9.64965 0 -9.60215 9.71543 0 -10.1707 10.6007 0
 -11.2554 10.5375 0 -10.714 9.64965 0 -10.1707 10.6007 0
 -10.714 9.64965 0 -11.2554 10.5375 0 -11.8147 9.59564 0
 -11.2554 10.5375 0 -12.3277 10.4957 0 -11.8147 9.59564 0
 -11.8147 9.59564 0 -12.3277 10.4957 0 -12.9039 9.55997 0
 -7.89961 10.755 0 -9.05723 10.6954 0 -8.47017 9.78122 0
 -7.89961 10.755 0 -8.47017 9.78122 0 -7.32453 9.82823 0
 -12.3277 10.4957 0 -13.3562 10.4806 0 -12.9039 9.55997 0
 -13.3562 10.4806 0 -13.9792 9.56117 0 -12.9039 9.55997 0
 -6.77308 10.7426 0 -7.89961 10.755 0 -7.32453 9.82823 0
 -6.77308 10.7426 0 -7.32453 9.82823 0 -6.14682 9.87978 0
 -13.9792 9.56117 0 -13.3562 10.4806 0 -14.3396 10.5981 0
 -3.55474 7.83314 0 -3.41882 6.67352 0 -2.58204 7.42814 0
 -3.41882 6.67352 0 -2.32519 6.34726 0 -2.58204 7.42814 0
 -3.41882 6.67352 0 -3.19313 5.35727 0 -2.32519 6.34726 0
 -3.19313 5.35727 0 -2.58145 4.24481 0 -1.95911 5.2445 0
 -2.32519 6.34726 0 -3.19313 5.35727 0 -1.95911 5.2445 0
 -2.09468 3.22398 0 -2.58145 4.24481 0 -3.14157 3.27651 0
 -2.68712 2.28036 0 -2.09468 3.22398 0 -3.14157 3.27651 0
 -2.58145 4.24481 0 -1.50453 4.19526 0 -1.95911 5.2445 0
 -2.09468 3.22398 0 -1.50453 4.19526 0 -2.58145 4.24481 0
 -2.68712 2.28036 0 -3.28878 1.37728 0 -2.26656 1.22901 0
 -1.6368 2.1875 0 -2.09468 3.22398 0 -2.68712 2.28036 0
 -1.6368 2.1875 0 -2.68712 2.28036 0 -2.26656 1.22901 0
 -3.28878 1.37728 0 -2.89141 0.281314 0 -2.26656 1.22901 0
 -2.26656 1.22901 0 -2.89141 0.281314 0 -1.8908 0.119648 0
 -9.05723 10.6954 0 -8.52026 11.8149 0 -9.67929 11.5384 0
 -8.52026 11.8149 0 -9.05723 10.6954 0 -7.89961 10.755 0
 -9.05723 10.6954 0 -9.67929 11.5384 0 -10.1707 10.6007 0
 -11.2554 10.5375 0 -10.1707 10.6007 0 -10.7224 11.4657 0
 -10.1707 10.6007 0 -9.67929 11.5384 0 -10.7224 11.4657 0
 -11.7841 11.4234 0 -11.2554 10.5375 0 -10.7224 11.4657 0
 -11.2554 10.5375 0 -11.7841 11.4234 0 -12.3277 10.4957 0
 -12.3277 10.4957 0 -11.7841 11.4234 0 -12.8426 11.3859 0
 -13.3562 10.4806 0 -12.3277 10.4957 0 -12.8426 11.3859 0
 -8.52026 11.8149 0 -7.89961 10.755 0 -7.27687 11.6763 0
 -7.27687 11.6763 0 -7.89961 10.755 0 -6.77308 10.7426 0
[...]
POINT_DATA 3042


SCALARS Von_Mises_Stresses float 1
LOOKUP_TABLE default
 21480.3 28927.1 2425.11 28858 20918.5 47004.3 23147.6 41622 48353.2 29987.7 40871.9 3712.82 70177.9 39970.6 32221.2 74400.9 30099.4 46340.9 38175.2 13400.6 2756.44 106071 113564 47741.4 109283 72586.2 53037.4 39769 103529 49431.1 43881.3 38839.4 49882 36168.4 43879.5 66087.2 40057.9 46256.8 11155.6 41181.3 74815.9 46046.4 71790.2 77254.2 38614.9 69740.4 113343 115431 77060.6 73168 112959 13620.2 43944.9 24845.8 166344 112958 107467 102546 169985 106054 172366 168501 104563 38623.8 102957 105934 115696 114194 162583 111333 169126 164062 40060.5 38683.1 105694 42162.3 37776 67413.4 45207.1 71988.4 89178.2 73565.6 48696.5 46507.3 76661.7 75124.4 44551.8 45902.6 48690.6 22884.2 75166.3 77298.2 108725 109901 75403.5 115319 155293 114072 165138 154907 110329 115573 25104.2 46920.4 33163.7 168896 229593 165436 229536 167574 245910 169003 173145 243921 173986 98202.2 166436 100352 49000.6 160945 266160 172282 169638 170375 269417 245312 217532 156447 164517 231601 216570 164001 94447.1 38704.6 82242.9 43879.4 106853 173885 104137 103269 93840.2 74916.2 70193 47662.2 99823.3 74468.1 109973 75410.6 99351.9 70131.3 48647.8 49459.2 31675.6 49043.7 69208.4 49479.6 140838 99822.3 110305 140593 109961 156029 199669 140656 156067 198404 156489 218470 48188.2 38782.4 33525.8 218743 229455 305622 230190 325942 302348 324835 231735 245012 356527 324079 245127 270829 356896 245571 305742 270824 160535 132426 298529 165193 270140 309358 422283 356543 271738 417981 284187 218516 306833 287241 198493 217649 307837 116099 363018 113868 144164 361588 127948 151629 108818 140123 110902 179136 70234.5 99598.1 87851.4 70008.9 64342.6 48937.7 64086.1 70614.6 87598.2 100800 140368 121976 100444 122140 87297.6 49516.4 49166.1 37778.4 49871.1 63689.5 49133.5 142895 198480 172692 120790 141794 173030 202377 286917 255434 170066 201316 254222 39234.5 48287 42140.3 456386 401977 306064 320668 455007 306714 401312 284969 304251 449553 321858 461280 326125 356177 459436 357095 494954 460810 499600 356042 418821 313420 522201 420239 533679 309011 365555 523750 632956 420696 620078 495827 426432 286322 408658 446108 248430 288785 437349 656626 524836 381641 419753 677925 379980 132177 431250 367440 156269 44245.6 395342 88380.6 182865 450481 102396 75198 88456 120562 102659 89017.2 76135.1 64647.1 87166.5 75831.9 58212.8 64771.4 64032 58626.5 48946.1 142476 100676 123036 143275 124343 169798 49192.5 48132 41541 58138.7 48034.5 49565.7 206498 139036 174804 209837 176563 248807 327145 261383 435761 325030 199657 259618 47535.1 43665.6 42625.1 457264 604229 396857 447595 744654 615649 606083 459190 458136 609602 729177 443127 403329 612763 459384 496607 664262 457817 653961 609352 458453 672803 493714 623439 624983 540608 779856 529642 651906 801816 865420 623281 782706 853006 666226 631833 687050 929161 784953 756688 962972 674387 446533 777843 654600 482265 224184 864218 344746 525016 826610 103199 113404 82976.1 114770 104159 138807 76925.1 100488 85118.1 64803.5 76480.8 84578.7 75095.1 65851.4 58895.2 65482 52988.4 58945.1 58175.1 53475.8 48049.6 159846 110672 144040 163060 145302 200294 53088.3 46427.1 48451.6 46563.4 43344.1 48081.4 236417 155081 209726 238814 210053 319368 44105 46156.1 43755.4 743073 601148 830654 611402 763534 809449 608054 661706 777449 663638 859039 914383 780140 670357 906364 1.01024e+06 861722 797075 929288 1.02465e+06 784711 865015 1.0594e+06 916324 1.01679e+06 1.06691e+06 856981 945815 827234 913420 1.07611e+06 1.02243e+06 943125 1.08737e+06 931823 931187 797345 630326 945058 978934 433764 516407 114668 119664 87471.2 121438 115080 155387 110446 90474.6 85356.9 66172.6 82912.1 70785.1 84817.7 89659.3 69092.1 56409.4 65928.8 70293.1 64738.7 57356.5 53613.1 53659.2 57004.8 48415.6 46561.8 52958.7 48893.1 114452 162606 174500 176648 162000 233293 46769.6 48607.4 44709.9 46461.9 44782.4 43543.9 44039.8 44417.8 42791.4 778256 811945 805112 918390 770097 920364 905622 808452 782890 1.0684e+06 1.07152e+06 910446 1.06587e+06 925834 919736 1.08918e+06 1.16253e+06 1.01364e+06 1.02061e+06 1.15573e+06 1.06968e+06 1.16933e+06 1.07656e+06 1.06744e+06 1.16586e+06 1.1734e+06 1.06232e+06 895747 554034 947756 1.10334e+06 910174 939017 1.14673e+06 1.0776e+06 969355 1.17395e+06 1.08265e+06 1.14047e+06 557400 629343 963749 116070 98014.2 88802.5 95278.6 120515 133111 119314 172364 134690 89289.3 116996 88023.5 71559.1 89159.1 88074.6 87852.7 72952.2 70647.1 59795.6 57391.1 69122 72575.6 58600.2 70500.4 48974.3 56377.8 50335.7 57338.3 59397.4 49545.1 43476.7 48980.2 50034.6 44907.4 48335.8 44166 44792.9 44135.6 42369.7 43692.8 40858.2 42684.5 773542 946331 724794 928417 991337 759391 1.08387e+06 995638 908838 1.00282e+06 1.07557e+06 1.11862e+06 1.06752e+06 1.17866e+06 1.12191e+06 1.18102e+06 1.16085e+06 1.20375e+06 1.15884e+06 1.15888e+06 1.20686e+06 1.1731e+06 1.16721e+06 1.12793e+06 1.16801e+06 1.17133e+06 1.21405e+06 674282 944010 936286 940102 1.17185e+06 948397 1.14325e+06 1.1417e+06 1.22331e+06 968496 1.14273e+06 1.14337e+06 950509 632976 631343 97825 101286 76394.9 97133.1 131652 102288 74815.1 94587.3 78072 95794.6 73525.9 89835.2 75225.4 72705.8 87438.6 59586.8 71548.1 61058.4 72996.8 74404.2 59823.6 58596.5 51349.2 50254.1 50422.7 59645.4 60607.9 44926.5 44012.1 49560.3 51006.2 44260.8 50338.3 44606.4 40608.4 44290.9 43870.6 40869.3 40791.4 40565.8 38634.5 41236.7 1.03608e+06 698685 706296 1.01567e+06 985077 1.13128e+06 1.00939e+06 760107 1.00461e+06 1.17405e+06 1.06006e+06 1.11902e+06 1.06199e+06 1.02503e+06 1.12014e+06 1.15549e+06 1.17677e+06 1.20458e+06 1.15792e+06 1.15475e+06 1.20635e+06 1.16816e+06 1.16125e+06 1.05333e+06 1.0675e+06 1.16591e+06 1.05669e+06 940631 947047 1.17118e+06 935158 944107 674964 632939 950736 631335 1.13982e+06 1.07948e+06 1.16975e+06 968910 1.07503e+06 1.14541e+06 100301 81970.3 77649.8 81837.6 59295.7 77648 60165.4 74993.4 77046.9 59879.3 61098.4 75993.5 73457.8 61457.6 60766.7 61020.1 50421.4 60841.4 51310.6 51101.6 59847.1 51038.9 44190.5 51156.2 44835.5 44671.1 50459.6 40772.8 44274.2 40778.3 44738.5 44605.3 40394.7 37863.9 40902.8 40541.5 40592.2 38093.5 38666.3 37902.5 35953 38937 932281 774988 1.00365e+06 727890 950166 775821 1.0697e+06 904389 1.01668e+06 919612 1.05675e+06 907945 899284 1.0622e+06 1.0581e+06 1.15165e+06 1.01383e+06 1.06053e+06 1.08644e+06 1.00746e+06 1.15775e+06 1.01027e+06 849343 1.05743e+06 856965 905172 1.05036e+06 557178 962913 628943 946610 554190 894578 1.10104e+06 938415 908901 927784 1.08444e+06 930506 1.07346e+06 938904 1.0163e+06 54875.6 78709.4 65383.6 78583.8 54735.1 60520.7 49369.6 60960.7 60080.6 50015.3 59432.4 47098.8 59754.9 55582.7 47053.9 49987.7 51067.8 60294.4 51042.3 49975.3 43269.6 50518.5 43761.6 44607.6 44248.3 39940.6 40597.1 43691.1 39580.7 44621.5 39845.6 37689.6 40621.9 37886 37934.7 40356.3 37853 35564.5 35996 37732.6 35410.4 38036.4 36158.2 35429.9 33155.1 903968 778841 808972 915897 908582 763490 775430 804995 811323 851199 658498 903475 895464 665335 774140 791256 854079 1.00406e+06 924964 779156 1.01825e+06 661331 845601 627373 618901 857871 777042 516955 432674 978071 824154 941859 912600 631364 793612 944035 669915 958486 753390 924906 682278 779325 54567.3 43213.1 47788.9 47878 55933.3 64264 54657 48761.7 43320.1 53211.7 48176.3 64244.3 43683 49517.3 41701.9 41487.9 49794.3 47455.5 43692.4 38949.4 47133.8 38953.1 41911.5 47006.8 39812.2 43371 38111.7 43592.4 41842.8 37912 39648.4 36051.8 37735.7 35946.5 39762.9 38171.9 36127.6 35441.4 37661.4 35379.1 33082.7 33215.6 35524.7 35987.8 32925.3 33002.4 30537.2 33308.9 657140 605280 771869 609242 809074 758183 830012 599408 742788 667998 619103 491167 659476 494057 456202 606979 649478 456833 796086 647501 526013 620491 774408 536736 493249 615796 424022 418434 628437 520188 343809 823542 522975 650099 774353 442698 859852 221719 479027 377074 673167 416486 652280 378479 521193 35996.2 39365 43150.4 47823.3 39410.6 43848.6 39832.6 35982.1 43161.5 52520.5 38665 48702.4 39662.5 39426.3 47706.4 38992.4 52404.4 44423.3 41647.8 39243.9 35735.2 38178.3 41544.2 35797 38932 33271.2 36010.3 36319.6 33286.4 38956.6 33724.5 38029.1 35973.5 36092.6 37962.5 33769.4 35972 33912.3 32945.6 30707 32908.5 30301.3 33065.2 33745.9 30085.4 28301 30780 30164.6 729288 607219 442426 603753 456598 458461 615859 744722 446955 459262 492367 355761 496918 416616 354788 325520 457767 354945 459654 321216 449025 311432 417951 518697 362804 307156 529885 415778 270672 355291 269167 419909 307608 447138 182708 88459.5 154632 392625 43873.4 130541 364586 427952 142551 112818 358694 360239 114944 306044 33597.4 30757.6 35968.6 39309.6 33273 36330.7 36004.9 30695.6 33546.2 39530.9 33283.4 39370.6 30027.9 33614.8 38703.1 33751.8 30195.7 38665 33059.9 39714.3 43861.8 36869.9 33171.2 43857.2 33502.9 31399 35774.7 31388.7 33897.2 35762 33293.4 29087.7 31581.5 30963.9 29148.8 33266.5 33719.9 31543.3 30144.4 27638.9 28398.6 29994.8 31409.4 28150.1 30292.5 28231.8 27509.5 30214.4 28460.7 27595.6 25873.1 305889 401883 455831 396827 604392 456583 320118 306580 454382 612949 403290 459591 244618 323517 355270 269884 245109 355562 244575 231577 324193 325354 229994 302204 131372 164714 296740 159993 269879 304008 244871 268478 170101 265200 169089 172039 139767 177214 111162 107888 149963 128161 38717.4 93733.6 81803.9 102234 103993 93282.2 106151 43715.8 173337 33242.7 30466 28143.9 33283.9 27997.1 30993.9 28307.9 26863.8 30687.8 30757 26743.5 29305 25342.1 30036.1 26771.9 30118.4 25156.4 28384.6 26300 30662.8 33008.9 28387.3 26498 32871.7 27815.6 33617.1 36435.3 28040.5 36388.5 30349.7 29271.9 28130.1 31406.9 26966.1 26099.9 29091.6 29144.9 26010.5 28238.9 27469.4 25792.6 25983.5 28165.7 25690.9 27521.2 28124.3 26159.7 25746.1 26004.4 25771.8 23730.9 229310 218770 305442 218508 284223 306698 285020 401198 304109 408603 286312 446353 261528 327385 436022 288797 248579 437590 229396 245460 167471 168921 243444 172890 216594 231455 164011 229421 168818 165468 165915 98151.1 173739 160470 48913.9 100304 169740 102471 106065 168429 172120 104563 71813.2 45234.6 88838.7 37782.1 42159.2 67181.9 105605 38675.6 40081.6 28004.7 25490.1 24538 27003.8 28103.5 24374.7 26751.7 24619 24034.3 26182.3 26847 23900.1 24658 25282.2 22051.8 25148.4 22652 22230.2 25542.9 26405.6 22332.8 22646.5 26750.6 27905.8 26241.9 23055 22531.5 28372.9 29954.6 23011.5 22865.4 27713.6 23467.7 29857.5 24608.8 23330.9 26099.2 23690.1 25790 26015.1 24078.1 23799.4 25683.2 23817.7 23849.4 23800.7 21809.6 23867.2 217665 198594 287267 156557 198495 218496 156528 217543 164544 286967 202460 255561 201408 170179 254351 176670 209985 248949 199804 325253 259771 319591 210197 239003 113015 166264 107463 169050 111381 164100 114141 155373 165171 114240 115770 162616 102894 38631.8 105941 39767.1 49492.8 103544 47788.4 113619 106086 36226.4 65950.7 43810.8 49925 38885.2 43783.6 24381.6 22295.2 22013.6 24100.2 24502.5 21859 21909.6 23908.3 22044.3 23830.4 24018.4 21776.7 22185.6 19951.2 22060.7 20105.3 22048.9 20097.1 22311.8 22470.4 19874.9 22310.9 19982.3 20044.9 22639.2 22804.3 19708.1 19893.9 22607.2 19667.7 19330.5 22987.3 23185 24456.4 18582.4 23439.3 18941 19556.2 22921.4 17525.7 23839.3 18498.7 18936.3 23669.8 17395.3 21947 23701.4 21912.5 21953 21900.4 20084.2 142982 172802 198576 140747 199759 156142 110037 140682 156108 115641 110405 154987 174918 139141 206641 124431 143381 169909 120878 173140 141884 200438 145407 163189 209870 155207 236609 162130 176808 233487 115503 113399 69806.2 72655 109342 53084.6 109976 115392 75469.5 77126.8 113034 73229.9 47049.9 20851.5 28900 23089.4 48409.7 41537.6 74464.1 46400.4 30136.3 20010 21928.6 21987.8 20128.8 20147.9 21864.4 21791.6 20144 20232.7 20077.3 18407.5 20156.5 19950.3 18375.1 18536.3 18215.1 20131.4 20005.8 19856.9 17911.6 20083 18099.6 18353.9 19864.5 19927.4 19539.8 17413.5 18060 19693.7 17626.1 19346 16837.2 17577.2 18919.2 16618.7 19543.5 18859.8 17419.5 15449.1 16814.4 18713.3 15605.9 17218.2 14017.8 15676.5 13539.3 17652.8 18254.9 13937.3 18177.2 14077.2 20133.7 18541.3 20229 122063 140458 100875 140929 110379 99896.4 99896.6 110049 74532.1 108803 77361.1 75229.6 144147 110763 159974 142582 123124 100755 114862 138912 104240 120649 89087.4 102739 87366.6 122228 100518 115173 121543 155513 162739 114551 174654 172518 119416 134814 77317 71857.9 38665.8 70243.4 32260.9 40024.1 76727.5 44603.9 75185.9 46098.6 74881.4 41230.7 21423.2 2393.96 28974.8 30035 3668.79 40921.2 18533 18687.8 20022.6 18678.1 18522.2 17164.3 18415.6 17085.5 17296.5 18330.6 16973.3 18537 18209.1 16807.3 17082.9 16672.3 18360.9 18034.5 16210.6 18064.3 17561.4 16355.6 16787.8 17902.7 16812.4 15548.2 17563.6 15690.9 16331.4 17417.4 14623.6 16769.8 15657.9 15673.5 16657.8 14734.5 13383 14757.7 15489.3 14071.7 13380.8 15584 10391.7 14084.6 13817.9 11839.9 13558.5 10773.9 11614.8 13520.1 13731.7 9810.49 10684 13726.9 87920.4 99672 70294.9 99426.9 75472.4 70190.9 46557.8 48746 73629 74979.2 47712.1 70251.8 90551.3 110537 85427.4 113495 103280 83045.2 114761 87545.8 119767 102476 88525.3 75260.2 85188.4 100568 76988.5 87235.4 64702.9 76197.9 64141 87668.1 70673.7 89365.2 88101.1 117097 116171 88880.6 98102.6 120618 95365.1 133235 97221.5 102386 131775 2731.19 13438 38226.1 11194.8 46306.9 40111.1 48739.1 45954.7 22919.9 43996.2 13659.2 24880.1 17072.6 15932.7 17285.6 16976.4 15812.5 16039.7 17078.3 16771.1 15720 15803.3 16665.4 15433 16780.7 16317.3 15329.7 16318.5 15672.7 14778.7 16208.6 14877.2 15421.4 14127.3 15644.1 14761.3 15561 14212.4 14874.3 13490.8 13293.1 14690.4 13315.6 14209 14661.9 13383.4 11777.7 12324.4 13359.5 13419 12239.7 11874.1 10601.8 9882.01 10352.4 8099.51 10231.1 9635.72 7711.69 10749.6 11597.8 10115.2 11367.6 12361.4 11718.4 11284 8042.11 9526.34 5907.62 48984.5 64397.4 70068.3 49092.5 49525.8 69268.3 49505 48697.2 31709.4 33196.6 46969.5 25139.9 89235.3 71621.4 88152 73015.5 87927.9 70707.4 89735.5 84888 69151.2 84649.1 76543.7 64858.4 70845.3 82981.3 66228.5 64826.3 58262.5 75895 75157.4 58945.6 65907 64086.8 48989.5 58676.3 49176.4 63744.8 49917.2 87515.4 72769 75292.3 89913.9 73591.4 95881.5 76464.8 101382 97914.4 74881.8 78143.6 94673.3 100396 77721 82047.8 16033.1 15795.8 14823.3 15717.3 14788.1 14892.5 14726.9 15794.7 15402.4 14865.9 14013.1 15405.4 14087.5 14751.7 15330.6 13736.9 14104.8 14779.2 14217.2 13639.4 14865.1 14180.3 13358.8 13110.2 13701 14143.5 13154 13310.8 12410.6 13149.8 12424.3 13304.6 12317.8 11658 12270.3 11330.1 11630.5 12448.7 12292.7 8552.22 10094.2 9955.6 10200.9 10874.8 11323.9 9950.85 10885.2 10100.5 8036.41 8416.37 10167.4 7725.82 5932.21 8694.26 5711.41 8004.86 5766.75 10842.4 11676 11286.9 6066.37 5618.55 2127.16 49208.8 49562.6 37811.4 48234.3 33559.7 38814.7 73060.3 59875.7 74470.5 61111.6 71610.4 59637.9 58650.5 72638.7 70560.5 57439.7 59846.7 69181.1 56457.1 70353.2 65984.4 53658.2 57404.9 64793.6 58995 53032.8 65537.7 58188.8 49608.6 48074.1 53520.5 58224.7 48089.7 48329.9 39267.6 42172.4 48171.7 49235.3 41573.5 73523.3 60819.7 61512.2 77117.5 75060.3 60218.8 81914.5 77719.4 59349.4 59933.7 76063.1 61152.7 54785.3 78658.2 60575.4 78783.8 54926.2 65445.2 14771.2 13788.2 14894.3 14737.5 14103.7 13854.8 14087.9 12988.4 13845.9 14000 13062.9 13068.6 13728.7 12987.3 14091.2 12870.6 13690.9 13164 12925.1 13045.3 13640.5 12361.7 12882.3 13129.6 12446.8 12367.4 13126.2 11768.8 12377 12429.7 11788.7 12408.9 11675.1 11185.8 11797 11666.4 11220 11632.2 10889.5 8549.77 6004.89 7619.14 9454.69 8412.98 7688.88 8586.87 9288.19 10051.9 10832 10020 10697.5 10061 10153.5 10669.7 9339.15 10255.1 9971.12 11216.2 10892.2 10624.3 5720.68 5030.91 7844.33 5013.19 5892.75 2118.74 5297.02 1892.57 1691.67 60660.7 59696.5 50465.3 51354.7 59899.2 51144.9 60894.5 50464.6 61074.3 59448.3 57386.7 49586.1 51392.6 58646.7 50296 56425.6 49014.4 50377.4 53704 48455.1 57053.2 48932.9 53003.1 46598.8 46463.8 53133.1 48491.4 43697.4 47574.7 42657.8 46600.2 48121 43376.1 49412.6 60135 61014.9 51111.8 50031.4 60347.9 47095.5 55633.7 59809.2 47140.5 59486.3 50058.9 54617.4 47831.2 43251.7 48806.8 54707.2 43358.9 55984.7 47922.2 64324.7 48220.9 53262.1 64304.8 13060.9 13058.9 12204.9 12924 12267.5 13032.8 12988.1 12318.6 12277.6 12870.5 12388.7 12309.2 12301.4 12387 11638.2 12353.8 11795.6 11676.1 11772.5 11215.7 11250.4 11685.7 11791.2 11245.4 11222.2 10827.4 11249.2 10867.9 11188.8 10662.2 5207.07 7531.4 7659.97 7534.31 9131.91 7620.17 8989.42 9342.87 7793.75 10196.5 9406.64 9857.97 9295.31 9009.95 9965.12 10187.4 10536 10636.4 10474.1 10848.5 10689 10291.3 10164.4 9878.95 10218.4 10499.2 10233.3 4990.49 1912.16 5812.26 7680.68 4980.15 5772.95 5772.33 2382.71 6267.7 2213.55 5654.91 6467.68 44296.6 51049.4 50380 44226.9 51082.8 51199.5 44707.4 44872.5 50502.2 51086.2 43305.9 50018.9 50561.9 44644.5 43798.3 49020 43510.4 50076.3 44046.5 44962.8 49601.4 48375.1 44941.9 44200.4 44744.1 48647.1 46806.5 44816.7 46498.6 43575.2 43786.6 46192.8 44137.2 41523 47497.4 49837.9 43719.7 41737.4 49560.5 41947 38986.5 47048.4 47175.6 38982.8 43731.4 39398.7 36027.4 43189 36013.2 39868.4 43200.1 39446 47867.6 43887.8 39699.3 47750.5 39461.8 48747.5 38701 52570.2 52454 39028.6 44466.1 12327.5 11539 12265.9 12272.4 11679.9 11618.2 11619.7 11098.4 11092.3 11603.5 11683.7 11051.1 11669.9 11253.1 11065.7 11065.9 11253.2 10764.9 11238.9 10845.3 10785.1 10773.2 10864.4 10462.5 10831.7 10494.3 10501.3 9160.21 7525.17 7812.6 7841.45 7485.69 5981.34 8995.79 7667.03 9035.82 9869.72 8991.65 9024.08 9100.62 9771.85 9878.66 10086.5 10237.3 9940.19 9775.99 10161.2 9864.06 10525.3 10228.4 10477.6 10235.1 10277.6 10480.4 10073.7 10243.6 10274.9 10097.7 10127.3 10221.7 7997.12 5819.53 6086.47 8671.76 7814.34 6353.72 7850.71 8810.87 6293.24 5808.87 8136.06 6116.1 8195.29 5941.52 9540.15 44642.6 44325.3 40639.4 40810.6 44310 40804.1 44642.2 44774.6 40426.6 44284.8 40629.2 39972.8 43727.8 44658.4 39612.5 37942.8 41878.3 43629 38142.8 43407.3 39844.3 44170 44827.2 42399.9 40887.5 43726.8 42715 40900.4 43904.7 40820.7 44451.8 44071.3 42821.8 39277.5 41683.2 35764.5 35826.4 41579.4 38209.4 38965.3 36039.8 33298.7 38990 33313.9 36351.1 39345 36362.1 33302.3 35999.8 30783.2 33626.9 33573.9 30721.2 36036 39567.5 39406 33312.6 38700.9 30222.6 33783.9 39751.2 33091.5 43904 30054.8 38739 33644.3 33202.8 36906.6 43899.5 11100.7 10594.1 11081 11063.9 10775 10627.9 10289 10764.1 10475 10788.9 10254.6 10617.7 10005.7 10271.5 10496.4 10240 10045.8 10466.2 9394.81 9013.78 7980.84 9893.36 9769.41 9129.72 9351.5 9975.5 9040.13 8544.85 9495.11 7893.5 10094.9 9847.35 10097.7 9775.28 9878.86 10163.1 10051.5 10093.1 10096.3 10148 9995.24 10085.4 10230.7 10084 9880.65 10020.7 10266.2 9836.84 10108.6 9741.66 9851.39 10012.1 9782.6 10069.5 8551.52 8154.35 10213.2 10088.1 9344.84 8712.89 10128.6 8679.47 10007.1 8208.62 10393.8 10281.3 10793.9 7848.07 9654.38 13750 10738.5 9831.15 40596.8 41266.3 38662.4 38122.3 40623.2 38694.3 37892.6 40573.6 40934 40654.1 37718.9 39877.8 40388.2 37963.5 37915.5 37765.1 36080.1 39680.3 35974.6 38203 39795 36003 38060 33751 33796 37993.3 36120.9 31413.6 35791.3 33923.9 35804.1 31423.8 33530.6 29171.9 30989.7 33294 31606.5 29110.8 33320.9 28167.4 30493.3 33271.9 31019.7 28020.6 33313.1 28331.7 30713.4 26885.2 30782.5 29328.3 26764.8 30145.3 28408.4 25177.6 30690.2 26324 33040.3 26796.2 30063 25363.4 32903.1 26522 28415.1 36471.6 33649.1 27843 30381.6 36424.7 28068 10011.3 10268.7 9396.59 10213.4 9871.22 9460.55 9953.97 10243.5 10088.8 10296.4 9893.2 10183.1 10228.8 10128.8 10099.8 10086.8 9995.37 10150.8 9763.09 10022.5 9701.41 10022.8 9763.55 9701.18 9783.37 10011.8 10071.4 10645.1 11897 9935.52 11622.5 11390.3 10163.6 10246.9 11347 10897.3 9993.07 10149.7 10907.3 10711.5 10059.8 10855.7 10099.3 10684.7 10172.6 14103.2 10440.7 13839.7 11866.4 10814.1 13576.1 13959.8 14100.3 18199.3 35979.2 37931.2 38965.3 38065.2 35437.2 37762 37881.6 36022.3 35591.4 37690.8 35468.2 36155.9 32970.6 33939 36000.2 35551.6 32950.4 36016 33772.4 33090.4 30108.3 31568.3 33746.5 30167.4 28171.8 31434.2 30315.6 29295.2