# vtk DataFile Version 2.0
Exported by getfem++
ASCII
DATASET UNSTRUCTURED_GRID
POINTS 2046 float
 -15 -10 0 -14.0323 -9.09091 0 -15 -9.09091 0
 -14.0323 -9.09091 0 -15 -10 0 -14.0323 -10 0
 -13.0645 -10 0 -14.0323 -9.09091 0 -14.0323 -10 0
 -14.0323 -9.09091 0 -13.0645 -10 0 -13.0645 -9.09091 0
 -13.0645 -10 0 -12.0968 -9.09091 0 -13.0645 -9.09091 0
 -12.0968 -9.09091 0 -13.0645 -10 0 -12.0968 -10 0
 -11.129 -10 0 -12.0968 -9.09091 0 -12.0968 -10 0
 -12.0968 -9.09091 0 -11.129 -10 0 -11.129 -9.09091 0
 -11.129 -10 0 -10.1613 -9.09091 0 -11.129 -9.09091 0
 -10.1613 -9.09091 0 -11.129 -10 0 -10.1613 -10 0
 -9.19355 -10 0 -10.1613 -9.09091 0 -10.1613 -10 0
 -10.1613 -9.09091 0 -9.19355 -10 0 -9.19355 -9.09091 0
 -9.19355 -10 0 -8.22581 -9.09091 0 -9.19355 -9.09091 0
 -8.22581 -9.09091 0 -9.19355 -10 0 -8.22581 -10 0
 -7.25806 -10 0 -8.22581 -9.09091 0 -8.22581 -10 0
 -8.22581 -9.09091 0 -7.25806 -10 0 -7.25806 -9.09091 0
 -7.25806 -10 0 -6.29032 -9.09091 0 -7.25806 -9.09091 0
 -6.29032 -9.09091 0 -7.25806 -10 0 -6.29032 -10 0
 -5.32258 -10 0 -6.29032 -9.09091 0 -6.29032 -10 0
 -6.29032 -9.09091 0 -5.32258 -10 0 -5.32258 -9.09091 0
 -5.32258 -10 0 -4.35484 -9.09091 0 -5.32258 -9.09091 0
 -4.35484 -9.09091 0 -5.32258 -10 0 -4.35484 -10 0
 -3.3871 -10 0 -4.35484 -9.09091 0 -4.35484 -10 0
 -4.35484 -9.09091 0 -3.3871 -10 0 -3.3871 -9.09091 0
 -3.3871 -10 0 -2.41935 -9.09091 0 -3.3871 -9.09091 0
 -2.41935 -9.09091 0 -3.3871 -10 0 -2.41935 -10 0
 -1.45161 -10 0 -2.41935 -9.09091 0 -2.41935 -10 0
 -2.41935 -9.09091 0 -1.45161 -10 0 -1.45161 -9.09091 0
 -1.45161 -10 0 -0.483871 -9.09091 0 -1.45161 -9.09091 0
 -0.483871 -9.09091 0 -1.45161 -10 0 -0.483871 -10 0
 0.483871 -10 0 -0.483871 -9.09091 0 -0.483871 -10 0
 -0.483871 -9.09091 0 0.483871 -10 0 0.483871 -9.09091 0
 0.483871 -10 0 1.45161 -9.09091 0 0.483871 -9.09091 0
 1.45161 -9.09091 0 0.483871 -10 0 1.45161 -10 0
 2.41935 -10 0 1.45161 -9.09091 0 1.45161 -10 0
 1.45161 -9.09091 0 2.41935 -10 0 2.41935 -9.09091 0
 2.41935 -10 0 3.3871 -9.09091 0 2.41935 -9.09091 0
 3.3871 -9.09091 0 2.41935 -10 0 3.3871 -10 0
 4.35484 -10 0 3.3871 -9.09091 0 3.3871 -10 0
 3.3871 -9.09091 0 4.35484 -10 0 4.35484 -9.09091 0
 4.35484 -10 0 5.32258 -9.09091 0 4.35484 -9.09091 0
 5.32258 -9.09091 0 4.35484 -10 0 5.32258 -10 0
 6.29032 -10 0 5.32258 -9.09091 0 5.32258 -10 0
 5.32258 -9.09091 0 6.29032 -10 0 6.29032 -9.09091 0
 6.29032 -10 0 7.25806 -9.09091 0 6.29032 -9.09091 0
 7.25806 -9.09091 0 6.29032 -10 0 7.25806 -10 0
 8.22581 -10 0 7.25806 -9.09091 0 7.25806 -10 0
 7.25806 -9.09091 0 8.22581 -10 0 8.22581 -9.09091 0
 8.22581 -10 0 9.19355 -9.09091 0 8.22581 -9.09091 0
 9.19355 -9.09091 0 8.22581 -10 0 9.19355 -10 0
 10.1613 -10 0 9.19355 -9.09091 0 9.19355 -10 0
 9.19355 -9.09091 0 10.1613 -10 0 10.1613 -9.09091 0
 10.1613 -10 0 11.129 -9.09091 0 10.1613 -9.09091 0
 11.129 -9.09091 0 10.1613 -10 0 11.129 -10 0
 12.0968 -10 0 11.129 -9.09091 0 11.129 -10 0
 11.129 -9.09091 0 12.0968 -10 0 12.0968 -9.09091 0
 12.0968 -10 0 13.0645 -9.09091 0 12.0968 -9.09091 0
 13.0645 -9.09091 0 12.0968 -10 0 13.0645 -10 0
 14.0323 -10 0 13.0645 -9.09091 0 13.0645 -10 0
 13.0645 -9.09091 0 14.0323 -10 0 14.0323 -9.09091 0
 14.0323 -10 0 15 -9.09091 0 14.0323 -9.09091 0
 15 -9.09091 0 14.0323 -10 0 15 -10 0
 -14.0323 -9.09091 0 -15 -8.18182 0 -15 -9.09091 0
 -15 -8.18182 0 -14.0323 -9.09091 0 -14.0323 -8.18182 0
 -14.0323 -9.09091 0 -13.0645 -8.18182 0 -14.0323 -8.18182 0
 -13.0645 -8.18182 0 -14.0323 -9.09091 0 -13.0645 -9.09091 0
 -12.0968 -9.09091 0 -13.0645 -8.18182 0 -13.0645 -9.09091 0
 -13.0645 -8.18182 0 -12.0968 -9.09091 0 -12.0968 -8.18182 0
 -12.0968 -9.09091 0 -11.129 -8.18182 0 -12.0968 -8.18182 0
 -11.129 -8.18182 0 -12.0968 -9.09091 0 -11.129 -9.09091 0
 -10.1613 -9.09091 0 -11.129 -8.18182 0 -11.129 -9.09091 0
 -11.129 -8.18182 0 -10.1613 -9.09091 0 -10.1613 -8.18182 0
 -10.1613 -9.09091 0 -9.19355 -8.18182 0 -10.1613 -8.18182 0
 -9.19355 -8.18182 0 -10.1613 -9.09091 0 -9.19355 -9.09091 0
 -8.22581 -9.09091 0 -9.19355 -8.18182 0 -9.19355 -9.09091 0
 -9.19355 -8.18182 0 -8.22581 -9.09091 0 -8.22581 -8.18182 0
 -8.22581 -9.09091 0 -7.25806 -8.18182 0 -8.22581 -8.18182 0
 -7.25806 -8.18182 0 -8.22581 -9.09091 0 -7.25806 -9.09091 0
 -6.29032 -9.09091 0 -7.25806 -8.18182 0 -7.25806 -9.09091 0
 -7.25806 -8.18182 0 -6.29032 -9.09091 0 -6.29032 -8.18182 0
 -6.29032 -9.09091 0 -5.32258 -8.18182 0 -6.29032 -8.18182 0
 -5.32258 -8.18182 0 -6.29032 -9.09091 0 -5.32258 -9.09091 0
 -4.35484 -9.09091 0 -5.32258 -8.18182 0 -5.32258 -9.09091 0
 -5.32258 -8.18182 0 -4.35484 -9.09091 0 -4.35484 -8.18182 0
 -4.35484 -9.09091 0 -3.3871 -8.18182 0 -4.35484 -8.18182 0
 -3.3871 -8.18182 0 -4.35484 -9.09091 0 -3.3871 -9.09091 0
 -2.41935 -9.09091 0 -3.3871 -8.18182 0 -3.3871 -9.09091 0
 -3.3871 -8.18182 0 -2.41935 -9.09091 0 -2.41935 -8.18182 0
 -2.41935 -9.09091 0 -1.45161 -8.18182 0 -2.41935 -8.18182 0
 -1.45161 -8.18182 0 -2.41935 -9.09091 0 -1.45161 -9.09091 0
 -0.483871 -9.09091 0 -1.45161 -8.18182 0 -1.45161 -9.09091 0
 -1.45161 -8.18182 0 -0.483871 -9.09091 0 -0.483871 -8.18182 0
 -0.483871 -9.09091 0 0.483871 -8.18182 0 -0.483871 -8.18182 0
 0.483871 -8.18182 0 -0.483871 -9.09091 0 0.483871 -9.09091 0
 1.45161 -9.09091 0 0.483871 -8.18182 0 0.483871 -9.09091 0
 0.483871 -8.18182 0 1.45161 -9.09091 0 1.45161 -8.18182 0
 1.45161 -9.09091 0 2.41935 -8.18182 0 1.45161 -8.18182 0
 2.41935 -8.18182 0 1.45161 -9.09091 0 2.41935 -9.09091 0
 3.3871 -9.09091 0 2.41935 -8.18182 0 2.41935 -9.09091 0
 2.41935 -8.18182 0 3.3871 -9.09091 0 3.3871 -8.18182 0
 3.3871 -9.09091 0 4.35484 -8.18182 0 3.3871 -8.18182 0
 4.35484 -8.18182 0 3.3871 -9.09091 0 4.35484 -9.09091 0
 5.32258 -9.09091 0 4.35484 -8.18182 0 4.35484 -9.09091 0
 4.35484 -8.18182 0 5.32258 -9.09091 0 5.32258 -8.18182 0
 5.32258 -9.09091 0 6.29032 -8.18182 0 5.32258 -8.18182 0
 6.29032 -8.18182 0 5.32258 -9.09091 0 6.29032 -9.09091 0
 7.25806 -9.09091 0 6.29032 -8.18182 0 6.29032 -9.09091 0
 6.29032 -8.18182 0 7.25806 -9.09091 0 7.25806 -8.18182 0
 7.25806 -9.09091 0 8.22581 -8.18182 0 7.25806 -8.18182 0
 8.22581 -8.18182 0 7.25806 -9.09091 0 8.22581 -9.09091 0
 9.19355 -9.09091 0 8.22581 -8.18182 0 8.22581 -9.09091 0
 8.22581 -8.18182 0 9.19355 -9.09091 0 9.19355 -8.18182 0
 9.19355 -9.09091 0 10.1613 -8.18182 0 9.19355 -8.18182 0
 10.1613 -8.18182 0 9.19355 -9.09091 0 10.1613 -9.09091 0
 11.129 -9.09091 0 10.1613 -8.18182 0 10.1613 -9.09091 0
 10.1613 -8.18182 0 11.129 -9.09091 0 11.129 -8.18182 0
 11.129 -9.09091 0 12.0968 -8.18182 0 11.129 -8.18182 0
 12.0968 -8.18182 0 11.129 -9.09091 0 12.0968 -9.09091 0
 13.0645 -9.09091 0 12.0968 -8.18182 0 12.0968 -9.09091 0
 12.0968 -8.18182 0 13.0645 -9.09091 0 13.0645 -8.18182 0
 13.0645 -9.09091 0 14.0323 -8.18182 0 13.0645 -8.18182 0
 14.0323 -8.18182 0 13.0645 -9.09091 0 14.0323 -9.09091 0
 15 -9.09091 0 14.0323 -8.18182 0 14.0323 -9.09091 0
 14.0323 -8.18182 0 15 -9.09091 0 15 -8.18182 0
 -15 -8.18182 0 -14.0323 -7.27273 0 -15 -7.27273 0
 -14.0323 -7.27273 0 -15 -8.18182 0 -14.0323 -8.18182 0
 -13.0645 -8.18182 0 -14.0323 -7.27273 0 -14.0323 -8.18182 0
 -14.0323 -7.27273 0 -13.0645 -8.18182 0 -13.0645 -7.27273 0
 -13.0645 -8.18182 0 -12.0968 -7.27273 0 -13.0645 -7.27273 0
 -12.0968 -7.27273 0 -13.0645 -8.18182 0 -12.0968 -8.18182 0
 -11.129 -8.18182 0 -12.0968 -7.27273 0 -12.0968 -8.18182 0
 -12.0968 -7.27273 0 -11.129 -8.18182 0 -11.129 -7.27273 0
 -11.129 -8.18182 0 -10.1613 -7.27273 0 -11.129 -7.27273 0
 -10.1613 -7.27273 0 -11.129 -8.18182 0 -10.1613 -8.18182 0
 -9.19355 -8.18182 0 -10.1613 -7.27273 0 -10.1613 -8.18182 0
 -10.1613 -7.27273 0 -9.19355 -8.18182 0 -9.19355 -7.27273 0
 -9.19355 -8.18182 0 -8.22581 -7.27273 0 -9.19355 -7.27273 0
 -8.22581 -7.27273 0 -9.19355 -8.18182 0 -8.22581 -8.18182 0
 -7.25806 -8.18182 0 -8.22581 -7.27273 0 -8.22581 -8.18182 0
 -8.22581 -7.27273 0 -7.25806 -8.18182 0 -7.25806 -7.27273 0
 -7.25806 -8.18182 0 -6.29032 -7.27273 0 -7.25806 -7.27273 0
 -6.29032 -7.27273 0 -7.25806 -8.18182 0 -6.29032 -8.18182 0
 -5.32258 -8.18182 0 -6.29032 -7.27273 0 -6.29032 -8.18182 0
 -6.29032 -7.27273 0 -5.32258 -8.18182 0 -5.32258 -7.27273 0
 -5.32258 -8.18182 0 -4.35484 -7.27273 0 -5.32258 -7.27273 0
 -4.35484 -7.27273 0 -5.32258 -8.18182 0 -4.35484 -8.18182 0
 -3.3871 -8.18182 0 -4.35484 -7.27273 0 -4.35484 -8.18182 0
 -4.35484 -7.27273 0 -3.3871 -8.18182 0 -3.3871 -7.27273 0
 -3.3871 -8.18182 0 -2.41935 -7.27273 0 -3.3871 -7.27273 0
 -2.41935 -7.27273 0 -3.3871 -8.18182 0 -2.41935 -8.18182 0
 -1.45161 -8.18182 0 -2.41935 -7.27273 0 -2.41935 -8.18182 0
 -2.41935 -7.27273 0 -1.45161 -8.18182 0 -1.45161 -7.27273 0
 -1.45161 -8.18182 0 -0.483871 -7.27273 0 -1.45161 -7.27273 0
 -0.483871 -7.27273 0 -1.45161 -8.18182 0 -0.483871 -8.18182 0
 0.483871 -8.18182 0 -0.483871 -7.27273 0 -0.483871 -8.18182 0
 -0.483871 -7.27273 0 0.483871 -8.18182 0 0.483871 -7.27273 0
 0.483871 -8.18182 0 1.45161 -7.27273 0 0.483871 -7.27273 0
 1.45161 -7.27273 0 0.483871 -8.18182 0 1.45161 -8.18182 0
 2.41935 -8.18182 0 1.45161 -7.27273 0 1.45161 -8.18182 0
 1.45161 -7.27273 0 2.41935 -8.18182 0 2.41935 -7.27273 0
 2.41935 -8.18182 0 3.3871 -7.27273 0 2.41935 -7.27273 0
 3.3871 -7.27273 0 2.41935 -8.18182 0 3.3871 -8.18182 0
 4.35484 -8.18182 0 3.3871 -7.27273 0 3.3871 -8.18182 0
 3.3871 -7.27273 0 4.35484 -8.18182 0 4.35484 -7.27273 0
 4.35484 -8.18182 0 5.32258 -7.27273 0 4.35484 -7.27273 0
 5.32258 -7.27273 0 4.35484 -8.18182 0 5.32258 -8.18182 0
 6.29032 -8.18182 0 5.32258 -7.27273 0 5.32258 -8.18182 0
 5.32258 -7.27273 0 6.29032 -8.18182 0 6.29032 -7.27273 0
 6.29032 -8.18182 0 7.25806 -7.27273 0 6.29032 -7.27273 0
 7.25806 -7.27273 0 6.29032 -8.18182 0 7.25806 -8.18182 0
 8.22581 -8.18182 0 7.25806 -7.27273 0 7.25806 -8.18182 0
 7.25806 -7.27273 0 8.22581 -8.18182 0 8.22581 -7.27273 0
 8.22581 -8.18182 0 9.19355 -7.27273 0 8.22581 -7.27273 0
 9.19355 -7.27273 0 8.22581 -8.18182 0 9.19355 -8.18182 0
 10.1613 -8.18182 0 9.19355 -7.27273 0 9.19355 -8.18182 0
[...]
POINT_DATA 2046


SCALARS Von_Mises_Stresses float 1
LOOKUP_TABLE default
 120430 144348 41883.5 116470 120286 163059 126602 123709 109438 137180 108299 130532 152738 138548 131350 150152 140816 170687 189321 150865 163566 191823 146917 168927 195053 191145 169065 193104 193018 225515 256946 193844 222629 258087 191608 223574 259138 255452 223562 256385 258301 297138 333967 258102 294522 333739 257215 298776 343002 329756 298817 339924 333182 371286 403958 343399 368805 402415 344386 390475 438316 398174 390591 436554 400082 426211 446227 441673 424537 445316 443727 483374 524741 442306 483496 525082 440186 449070 457060 529668 448474 459728 530847 550396 572348 458541 550459 573423 452883 451318 454715 574544 451263 460521 573942 565485 559607 460901 565463 559355 456248 451060 448985 556211 451299 453246 555224 522130 490884 455336 522033 489032 454730 440408 424151 483795 441514 424042 484465 438436 393750 427827 438307 392023 429436 400285 369042 387592 402432 366021 390214 343336 298438 370339 343255 298393 371347 332628 295475 295872 335168 292140 298936 258718 221641 295677 258738 223229 295270 257305 223924 222056 259452 221410 224311 193908 166812 224119 194063 168968 222992 192044 165788 168353 192872 162990 170285 149867 127954 168303 150534 129763 167380 140358 116825 127373 135452 108969 133206 114948 76831.8 147114 122293 60849.2 169618 129025 122672 18013 38112.6 108557 4667.63 79684 111038 109751 78749.8 108060 111782 130443 148634 112025 131261 151409 109146 128157 145405 149158 128020 144207 150377 168965 191908 145950 169103 194476 143126 166064 194144 192254 166108 192474 194057 223616 257102 195089 223604 259231 192834 230288 274455 255706 230411 272992 258019 298874 343307 276822 298915 344504 275718 331039 392515 340336 331200 392325 342343 390580 441695 396565 390696 441481 397567 462977 531514 438326 463037 531783 439469 483421 529414 535110 483543 528003 538530 590588 642178 526651 590534 640788 527464 550374 574810 642320 550437 573253 646522 659599 670410 573059 659576 666777 574351 565445 557908 666261 565423 556917 668860 635477 600532 557586 635532 596407 559214 522140 486601 593915 522042 485744 594251 530709 468408 487979 530719 466129 488883 438517 390338 462192 438388 388762 461902 394755 332240 392622 394628 332407 392097 343449 297905 328217 343368 295624 329098 276073 229493 299638 275917 231285 297888 258796 223431 228023 258816 221283 229760 194198 164699 224107 194110 167293 221637 193952 169681 165251 194107 168151 166696 144785 126487 169891 144762 129633 166682 149911 131751 127560 150578 130297 128921 110754 80765.2 133506 111238 80297.3 130900 113992 50544.3 82258.4 121332 34420.4 83770.3 20610 55267.5 24464.8 56222.1 58826.3 12876.3 80006.5 111244 52703 79072.5 109363 53771.2 80690.4 99119.6 109457 80378.9 98434 110407 128094 143740 100183 127957 146000 98188.9 115983 137511 143908 115930 136537 144873 166112 192665 139175 166155 195387 136621 166198 204602 191898 166249 203596 193300 230367 274817 207728 230490 277492 205282 258310 321530 272744 258476 322136 273600 331085 395580 326863 331247 397078 325731 403664 487853 393083 403830 489711 393025 462967 536160 493075 463027 534764 495570 576887 657512 533283 576861 657036 534009 590619 645713 658298 590565 641638 664694 711631 753200 641685 711546 748321 644775 659693 670574 748465 659670 666512 754931 742548 724019 666435 742582 716985 670886 635546 597134 716430 635602 595283 719123 653812 585158 595738 653901 580452 598702 530707 463488 578189 530717 463448 577006 490423 406482 466246 490347 406076 466034 394766 328728 401811 394639 328418 400276 325058 258336 333108 324862 260367 330808 276146 228786 255717 275989 227517 256091 205939 165648 231776 205832 168222 229010 194263 165969 164839 194174 164709 166004 137315 115354 167388 137309 117782 164795 144777 128228 115643 144754 127426 116389 98784.7 80340.5 128901 98927.3 81257.9 127590 110471 80290 80587.8 110956 78772.1 81346.4 54860.9 44284.8 71642.4 54908.4 54865.9 77666.5 22846.7 49659.9 74046 56927.2 49625.7 65520.1 44759.7 51411 56308 44776.4 53044.9 55289.8 80690.8 98352.8 51580.9 80379.2 98678.1 51184.3 66647.2 84421.4 98313 66539.6 84029.3 98923.7 115963 136536 85972.4 115909 138853 84123.8 106381 137193 136071 106337 136234 137092 166275 204481 140160 166326 207840 137301 181180 238306 202963 181257 238379 203729 258407 323977 244015 258573 327397 240956 318814 407665 321854 319079 410423 321100 403647 492957 415325 403813 493519 415097 516896 620246 490636 517036 622528 489686 576833 662891 624191 576807 658345 630490 714194 791889 658762 714070 788357 661020 711700 755802 788030 711615 749013 797999 820326 835009 749401 820280 825912 755434 742656 722330 826118 742690 717973 832863 783310 726680 717144 783429 717708 723437 653816 579995 717423 653904 579686 717642 621478 522310 580648 621502 519470 582647 490360 400808 516068 490283 402062 512792 413042 319518 406660 412782 321716 404210 325109 255229 316034 324913 255155 314618 241372 180980 260711 241192 184136 257094 206043 165337 179198 205935 164265 179947 137487 106486 168120 137487 108884 165226 137350 116160 105994 137344 115363 106743 84009.5 66685.6 117106 84087.2 67837.4 115577 98721.3 80845.3 67043.8 98863.9 80405 66941.7 51700.4 41175.1 78104.8 51805.5 42868.8 79560.1 55036.1 47510.3 47147.8 55083.4 57031.2 40575 74784.7 37216.1 74375.2 79889.6 44117.1 66065 44827 49328.5 43201.9 44843.8 49482.1 40453.6 33490.3 38553.3 52419.5 33466.9 40025.4 51820.8 66622.9 83739.3 39903.9 66515.2 84852.2 39389.3 53069 75373.4 83875.1 52999.4 74949.6 84554.8 106403 136564 77553.9 106358 139582 75480.4 106727 152969 135786 106664 152079 136860 181307 239282 157676 181384 243964 153741 220344 303970 237466 220510 305410 237405 318900 412271 312696 319165 416062 309056 418164 534580 410044 418592 539173 408021 516780 627439 543391 516920 624912 546507 664713 776475 624322 664706 776941 624034 714176 797576 776198 714051 788929 788368 853581 911078 790912 853429 902839 796055 820462 835841 902177 820416 828228 913810 895776 871358 827375 895830 858117 836370 783391 722189 859530 783511 719921 863444 773280 674982 718353 773450 666683 724633 621368 514890 665261 621392 516723 661584 541420 420173 520320 541149 421407 519087 413019 313947 414990 412758 315139 411577 309327 220132 322081 308973 224443 317273 241512 179270 217607 241332 178507 217745 153913 107187 183773 153901 110261 179819 137564 106702 106181 137564 105729 107071 74637.9 54013.3 108096 74718.2 55166.3 106041 83988.5 67127.8 53917.9 84066.2 66848.1 53619.2 38917 32457 66194.8 38962.6 33197.6 65925.6 51758.7 42633.6 34404.2 51863.8 46171.6 30687.6 43820.6 72662.4 42224.6 43820.6 79519.2 37905.7 74694.7 38706.1 73616.9 79184.5 43482 68573 45503 31147.7 44440.1 45427.7 34266.5 40078 33513.9 37985.7 35044.5 33490.6 38681.7 34430 30543.2 32775 40116.3 30561.7 34757.9 39424.2 53036 74615.3 34792.3 52966.4 76417.8 34972 46183.3 75882.6 75035 46112.8 75458.9 75822.2 106781 152144 79028.3 106717 156694 75981.6 122028 191093 151517 121927 190225 152702 220547 306030 198345 220713 312732 192399 290886 408400 303719 291305 411529 302939 418180 542164 420813 418608 544830 417736 561001 700431 539488 561532 705831 536986 664531 785793 707351 664524 777386 718405 831840 933572 780897 831597 929916 782602 853696 915769 926792 853544 904752 943687 967775 990118 906395 967732 976404 914929 895947 868857 977779 896001 863709 986720 921344 850139 859764 921513 833732 871090 773252 666655 835945 773421 667766 834289 706495 566410 668001 706471 563302 670863 541253 411513 557122 540982 413663 551512 417236 290716 422337 416532 296507 416406 309503 216924 286824 309149 216412 286294 192910 122381 223778 192837 127159 217852 154050 107254 121327 154038 106054 122387 74630.3 48372.6 109187 74753.2 49570.6 106095 74630.5 54228.9 48029.5 74710.8 54057 47310.8 32769.5 31561.1 53938.2 32771.5 31271.9 53051.1 38897.1 32384.2 31477.2 38942.8 34544.6 28755.5 34782.1 43630.2 32450.3 34815.2 45576.1 30485.8 43872.3 71434.2 44233 43872.3 78703.1 39242.3 73749 41515.1 71992.5 58673.1 43918.7 66082.9 45581.4 33565.7 45916.5 45506.2 35185.5 45289.5 45081.8 40697.2 35477.9 45012.2 42810.8 32734.4 30538.1 33520.2 43229.3 30556.6 34007.2 43711.8 36852.7 31868.4 35404.8 36927.3 35179.3 33733.5 46126.6 74523.4 34873.9 46056.1 77520.7 35826 43943.5 86610.1 75949.7 43849.6 86251 76799.9 122121 189294 91339 122020 196657 85857.8 154789 256389 189120 154615 255176 190822 291228 412357 267990 291648 421889 258855 401709 559954 408616 402839 565632 407628 560787 712320 575788 561318 709522 578165 745241 888612 709871 745272 891872 707768 831846 943762 886953 831604 929228 909312 980871 1.05119e+06 936704 980739 1.04351e+06 940244 967974 991292 1.04094e+06 967931 983382 1.05506e+06 1.02743e+06 1.00843e+06 980421 1.02742e+06 988061 992730 921538 842688 994182 921707 842603 996354 885724 759309 835356 886126 744057 846727 706212 554324 742122 706188 556852 734748 574134 402522 565748 573067 408996 560125 417393 285070 394797 416689 284252 393533 259684 154657 295746 259353 162770 286405 193164 122933 153884 193092 121309 155304 84521.7 47264.7 125407 84752.5 49356.1 120328 74613.2 48293.6 47423.5 74736.2 48667.2 45817.4 31817.7 39212 48355.6 31752.2 37930.5 47029.2 32731.4 29838.7 38360.7 32733.3 32247.3 35432.4 42637.3 45263.9 31059.3 42618.2 45507.6 30264.2 34789.2 41773.3 44023.3 34822.2 45500.6 42502.6 45593.4 56021.4 45982.2 45780 58769 43205.9 72518 45795.6 38140 57026.8 45899.2 38373.7 42416.2 49415.4 45675.8 42131.8 50161.2 43004.2 45118.1 42921.5 51466.8 45048.5 43358.7 51233 53998.1 48459.7 43589.6 53983.6 50728.9 40941.2 36893.3 33988.8 51073.9 36968 34221.8 52047.9 39925.2 24723.9 36177.5 40047.1 30537 32625.8 43825.9 83425.9 29987.2 43732.3 88729.4 31703.4 40670.3 105070 87376.1 40471.2 104719 88433.2 154971 252443 112492 154797 265249 101874 205024 356615 252265 204740 353884 256001 402236 568380 376185 403365 580275 363347 568970 759656 564059 571559 769028 563345 744773 905037 771576 744804 888634 794595 926064 1.03508e+06 903744 925419 1.03682e+06 899960 981250 1.05811e+06 1.02528e+06 981118 1.04683e+06 1.04681e+06 1.05186e+06 1.0858e+06 1.05175e+06 1.05205e+06 1.07509e+06 1.05567e+06 1.02762e+06 1.00342e+06 1.07951e+06 1.02761e+06 1.00485e+06 1.08213e+06 1.01275e+06 955332 991377 1.01256e+06 924774 1.00941e+06 885925 746485 935471 886326 749706 930645 776330 573915 747731 776266 574028 749521 573908 392085 556104 572841 389263 553016 363974 204821 409739 362435 219169 394172 260240 156544 203519 259910 153836 205933 101089 44265.1 159410 101642 49224.1 150639 84458.1 47406.7 46657.9 84689 48777 43861.7 25552.5 43134.6 47651.3 25365.3 41024.7 45295 31794.8 35670.2 41371.9 31728.8 39048.1 37705.8 50475.1 54681.6 37937.9 50431.9 54557 37896.3 42678.6 43024.1 53629.7 42659.6 45285.6 52216.9 50882 42591.5 45468.6 50967.1 42245.7 44995.1 45704.9 52765.2 41052.5 45891.3 56674.3 40723.9 38028.9 33931.5 36148.8 16615.9 33615.7 35069.9 42539.9 50896.9 33068.4 42255.9 50931.8 33504.5 47782.9 55014.2 50984 47688.8 55610.9 49327.4 54067.2 50792.2 57073.9 54052.6 51218.6 56268.6 58726.6 52025.2 51211.9 58677.1 53323.4 48054.8 40075.3 28742.6 54984.1 40197.1 29097.5 55935.3 42566.2 12906.5 31962 42620.4 16921 25111.7 40377.6 97530.6 17360.3 40179.6 106904 23850.6 28415.3 121235 107148 27777.7 120726 109002 205532 348796 134862 205248 373960 113306 273915 512216 345136 274358 505728 356836 568988 777274 541348 571578 779148 534089 792900 937996 787008 791041 942902 781641 926946 1.05066e+06 919235 926300 1.03065e+06 958769 973383 1.03199e+06 1.05262e+06 974066 1.03944e+06 1.03976e+06 1.05179e+06 1.0855e+06 1.0331e+06 1.05197e+06 1.09142e+06 1.03375e+06 997997 1.01412e+06 1.08421e+06 997796 998336 1.08937e+06 1.01328e+06 944172 1.01739e+06 1.01309e+06 958188 1.00454e+06 920803 814381 926044 923385 774811 952393 775506 557809 771818 775443 551895 760610 536089 278343 582762 529070 302811 557182 365277 209142 269067 363739 202607 275618 112002 27412 211819 113912 39279.7 195416 100862 46908.1 36641.5 101416 49231.6 35230.1 17901.9 45129.8 45858.8 17661.5 41941.8 41297 25613.7 37110.6 40412.6 25425.2 41915 38723.5 54657 59081.4 41173.7 54665.1 59344.7 41243.5 50587.5 52052.5 57768.1 50544.3 54231.6 56811.1 56250.1 47608.7 54478.6 56330.1 48344.4 53877.3 50938.4 40796.2 47303.2 51023.5 42544.1 46897.5 33236.2 20109.6 41296.6 33492.1 16516 43522.4 36185.2 33817.7 2264.9 15108.2 30944.8 5952.86 18478.3 35301.8 33710.5 18577.7 35246.1 33065.4 47827.7 55175 36364.8 47733.6 56884.6 33925.9 49101.1 60073.3 56303.6 48996.6 59369.7 54859.9 58862.7 54279.3 62678 58813.2 55733.5 60219.8 72049.1 78039 53677.5 71934.3 74478.1 51022.3 42892.6 20034.5 79864 42947.1 19079.8 79820.1 83951.7 74245.9 17788.5 83763 59898.4 9558.13 27462.6 103163 65899.2 26826 119143 74415.6 55388.7 113590 126495 53969.1 106168 132356 275781 497374 144059 276223 554549 106868 385970 700985 493987 396672 723599 522981 792283 968416 710566 790425 922602 780932 831724 773041 988030 801678 851317 940881 973582 1.03833e+06 826849 974265 1.04934e+06 795695 827008 783425 1.05706e+06 822912 844331 1.02832e+06 998102 1.00065e+06 853408 997901 1.03606e+06 802500 802082 789216 1.01234e+06 812968 799586 1.01668e+06 924622 801013 861093 927215 819434 829056 745196 406657 791620 775484 430782 778261 537988 290566 352514 530966 262239 384157 94061.3 39124.4 288831 94293.3 22977.8 250954 111202 41740.2 25617.8 113115 41200.5 59687.7 76261 82935.5 31556.7 76848.4 79949.1 24804.2 18442.3 36950.5 73692.8 18201 40570.5 80846.3 80241.7 71313.1 43364.9 80420.1 72854.5 42859.6 54865.3 56252.1 68512 54873.4 58312.1 70214.1 61108 47843.2 59623.4 61209.9 50675.8 57781.4 56329.8 47013.2 48392.6 56409.8 47820.4 48730.3 35186.9 17635.4 47435.1 35259.9 18434.9 46711.1 33305.3 17834.4 20331.4 33560.9 15617 19518.1 1132.86 2472.76 2162.54 2579.06 6036.23 5655.99 18398.7 32091.4 6713.43 18498.2 36174.7 3030.29 17444.9 42522.2 36541.7 19041.1 43570.2 35883.3 49249.8 59457.3 48109.1 49145.4 63542.9 45173.8 72102.1 102565 60072.6 74359.7 101252 59764.5 72183.7 79276.9 107816 72068.9 82542 106638 135641 166474 75731.8 138907 162787 77651.1 84218.2 75780.3 173336 84030.2 76331.8 173622 200141 225897 61523.8 206768 217694 70703.1 56478.2 66654.3 243068 55288.7 90354.5 251481 267430 264868 149880 302092 110708 179566 391753 656029 86589.4 402442 798355 174399 659526 325253 794674 416481 728757 671078 851226 699652 671844 821655 860012 354732 648847 304691 814508 593091 599439 697877 843880 691293 598287 839873 837607 338862 699310 269778 862049 641169 535668 749277 814195 691043 556759 824884 842965 290752 705924 173384 906828 611589 387612 864500 766525 490961 567787 796741 339032 442002 369971 248321 422346 318089 178441 297731 88904 62683.4 170781 89142.2 18011.4 265039 246316 205688 50470.1 236348 202896 54903.1 76453.2 80631.6 188426 77046.6 75477.9 198329 172811 139336 85634.2 168614 140004 82791.8 80391.5 70046.6 131947 80570.1 69371.6 134579 106052 74935.9 74350.3 103460 76814 70661.5 61242 48441.8 71281.9 61343.8 49304.8 71581.2 44736.3 19256.4 51196.5 42711.2 23825.3 46706.6 35320 20666.4 20780.9 35392.9 19863.2 17838 1501.82 4824.61 16220.3 1385.5 4542.05 15699.9 1114.92
